%nprocshared=1
%mem=1GB
%chk=test.log
# opt b3lyp/6-31g(d) 

test.log opt

0 1
%chk=test.log
# opt b3lyp/6-31g(d) 

test.log opt

0 1
%chk=test.log
# opt b3lyp/6-31g(d) 

test.log opt

0 1
%chk=test.log
# opt b3lyp/6-31g(d) 

test.log opt

0 1
%chk=test.log
# opt b3lyp/6-31g(d) 

test.log opt

0 1
%chk=test.log
# opt b3lyp/6-31g(d) 

test.log opt

0 1
 Output=5814rr__1.log
 Initial command:
 /home/zyang/g09/l1.exe /home/zyang/chenzhaoqiang/fjb/opt/Gau-4131.inp -scrdir=/home/zyang/chenzhaoqiang/fjb/opt/
 Entering Link 1 = /home/zyang/g09/l1.exe PID=      4157.
  
 Copyright (c) 1988,1990,1992,1993,1995,1998,2003,2009, Gaussian, Inc.
                  All Rights Reserved.
  
 This is part of the Gaussian(R) 09 program.  It is based on
 the Gaussian(R) 03 system (copyright 2003, Gaussian, Inc.),
 the Gaussian(R) 98 system (copyright 1998, Gaussian, Inc.),
 the Gaussian(R) 94 system (copyright 1995, Gaussian, Inc.),
 the Gaussian 92(TM) system (copyright 1992, Gaussian, Inc.),
 the Gaussian 90(TM) system (copyright 1990, Gaussian, Inc.),
 the Gaussian 88(TM) system (copyright 1988, Gaussian, Inc.),
 the Gaussian 86(TM) system (copyright 1986, Carnegie Mellon
 University), and the Gaussian 82(TM) system (copyright 1983,
 Carnegie Mellon University). Gaussian is a federally registered
 trademark of Gaussian, Inc.
  
 This software contains proprietary and confidential information,
 including trade secrets, belonging to Gaussian, Inc.
  
 This software is provided under written license and may be
 used, copied, transmitted, or stored only in accord with that
 written license.
  
 The following legend is applicable only to US Government
 contracts under FAR:
  
                    RESTRICTED RIGHTS LEGEND
  
 Use, reproduction and disclosure by the US Government is
 subject to restrictions as set forth in subparagraphs (a)
 and (c) of the Commercial Computer Software - Restricted
 Rights clause in FAR 52.227-19.
  
 Gaussian, Inc.
 340 Quinnipiac St., Bldg. 40, Wallingford CT 06492
  
  
 ---------------------------------------------------------------
 Warning -- This program may not be used in any manner that
 competes with the business of Gaussian, Inc. or will provide
 assistance to any competitor of Gaussian, Inc.  The licensee
 of this program is prohibited from giving any competitor of
 Gaussian, Inc. access to this program.  By using this program,
 the user acknowledges that Gaussian, Inc. is engaged in the
 business of creating and licensing software in the field of
 computational chemistry and represents and warrants to the
 licensee that it is not a competitor of Gaussian, Inc. and that
 it will not use this program in any manner prohibited above.
 ---------------------------------------------------------------
  

 Cite this work as:
 Gaussian 09, Revision A.02,
 M. J. Frisch, G. W. Trucks, H. B. Schlegel, G. E. Scuseria, 
 M. A. Robb, J. R. Cheeseman, G. Scalmani, V. Barone, B. Mennucci, 
 G. A. Petersson, H. Nakatsuji, M. Caricato, X. Li, H. P. Hratchian, 
 A. F. Izmaylov, J. Bloino, G. Zheng, J. L. Sonnenberg, M. Hada, 
 M. Ehara, K. Toyota, R. Fukuda, J. Hasegawa, M. Ishida, T. Nakajima, 
 Y. Honda, O. Kitao, H. Nakai, T. Vreven, J. A. Montgomery, Jr., 
 J. E. Peralta, F. Ogliaro, M. Bearpark, J. J. Heyd, E. Brothers, 
 K. N. Kudin, V. N. Staroverov, R. Kobayashi, J. Normand, 
 K. Raghavachari, A. Rendell, J. C. Burant, S. S. Iyengar, J. Tomasi, 
 M. Cossi, N. Rega, J. M. Millam, M. Klene, J. E. Knox, J. B. Cross, 
 V. Bakken, C. Adamo, J. Jaramillo, R. Gomperts, R. E. Stratmann, 
 O. Yazyev, A. J. Austin, R. Cammi, C. Pomelli, J. W. Ochterski, 
 R. L. Martin, K. Morokuma, V. G. Zakrzewski, G. A. Voth, 
 P. Salvador, J. J. Dannenberg, S. Dapprich, A. D. Daniels, 
 O. Farkas, J. B. Foresman, J. V. Ortiz, J. Cioslowski, 
 and D. J. Fox, Gaussian, Inc., Wallingford CT, 2009.
 
 ******************************************
 Gaussian 09:  EM64L-G09RevA.02 11-Jun-2009
                16-May-2014 
 ******************************************
 %nprocshared=1
 Will use up to    1 processors via shared memory.
 %mem=1GB
 %chk=5814rr__1.chk
 ------------------------------------------------
 # opt b3lyp/6-31g(d) scrf=(smd,solvent=n-Hexane)
 ------------------------------------------------
 1/14=-1,18=20,19=15,26=3,38=1/1,3;
 2/9=110,12=2,17=6,18=5,40=1/2;
 3/5=1,6=6,7=1,11=2,16=1,25=1,30=1,70=32201,71=1,72=142,74=-5/1,2,3;
 4//1;
 5/5=2,38=5,53=142/2;
 6/7=2,8=2,9=2,10=2,28=1/1;
 7//1,2,3,16;
 1/14=-1,18=20,19=15/3(2);
 2/9=110/2;
 99//99;
 2/9=110/2;
 3/5=1,6=6,7=1,11=2,16=1,25=1,30=1,70=32205,71=1,72=142,74=-5/1,2,3;
 4/5=5,16=3/1;
 5/5=2,38=5,53=142/2;
 7//1,2,3,16;
 1/14=-1,18=20,19=15/3(-5);
 2/9=110/2;
 6/7=2,8=2,9=2,10=2,19=2,28=1/1;
 99/9=1/99;
 -----------------
 5814rr__1.xyz opt
 -----------------
 Symbolic Z-matrix:
 Charge =  0 Multiplicity = 1
 C                     0.0222   -1.3016    2.2666 
 C                     0.0412   -0.3383    1.3156 
 C                     0.7788   -0.3363   -0.0175 
 C                     2.1813   -1.0062   -0.0181 
 C                     2.0768   -2.5569   -0.0589 
 C                     0.9119   -3.1951    0.7229 
 C                     0.6792   -2.6842    2.1618 
 C                    -0.7514   -0.9941    3.5516 
 C                    -2.0807   -1.7717    3.7186 
 C                    -3.1916   -1.4097    2.7281 
 C                    -4.3502   -2.3828    2.6089 
 O                    -3.1691   -0.3819    2.0544 
 C                     1.9265   -2.837     3.0552 
 C                     3.1764   -0.4231   -1.0854 
 C                     4.5081   -1.1952   -1.1579 
 C                     3.4886    1.0707   -0.8685 
 O                     2.6089   -0.5186   -2.3717 
 H                    -0.5057    0.573     1.5208 
 H                     0.8686    0.7143   -0.2837 
 H                     0.1381   -0.7632   -0.7902 
 H                     2.6325   -0.7562    0.9433 
 H                     3.0096   -2.9822    0.3148 
 H                     1.9971   -2.8936   -1.0932 
 H                     1.0724   -4.2744    0.7502 
 H                    -0.0122   -3.0691    0.1555 
 H                    -0.0615   -3.3749    2.5668 
 H                    -0.1007   -1.2145    4.3981 
 H                    -0.9532    0.0764    3.6377 
 H                    -1.9019   -2.8435    3.653 
 H                    -2.479    -1.5913    4.7164 
 H                    -5.0793   -2.0115    1.8897 
 H                    -3.9907   -3.3529    2.2691 
 H                    -4.8419   -2.5019    3.573 
 H                     1.6885   -2.681     4.1073 
 H                     2.353    -3.837     2.9701 
 H                     2.7066   -2.1241    2.7904 
 H                     5.1958   -0.7452   -1.8752 
 H                     5.0091   -1.2011   -0.1896 
 H                     4.3758   -2.2326   -1.4648 
 H                     4.2423    1.4266   -1.572 
 H                     3.8726    1.2516    0.1355 
 H                     2.6199    1.7115   -1.0101 
 H                     2.4104   -1.4467   -2.5303 
 

 GradGradGradGradGradGradGradGradGradGradGradGradGradGradGradGradGradGrad
 Berny optimization.
 Initialization pass.
                           ----------------------------
                           !    Initial Parameters    !
                           ! (Angstroms and Degrees)  !
 --------------------------                            --------------------------
 ! Name  Definition              Value          Derivative Info.                !
 --------------------------------------------------------------------------------
 ! R1    R(1,2)                  1.3538         estimate D2E/DX2                !
 ! R2    R(1,7)                  1.5343         estimate D2E/DX2                !
 ! R3    R(1,8)                  1.5311         estimate D2E/DX2                !
 ! R4    R(2,3)                  1.5236         estimate D2E/DX2                !
 ! R5    R(2,18)                 1.0824         estimate D2E/DX2                !
 ! R6    R(3,4)                  1.5543         estimate D2E/DX2                !
 ! R7    R(3,19)                 1.0875         estimate D2E/DX2                !
 ! R8    R(3,20)                 1.0908         estimate D2E/DX2                !
 ! R9    R(4,5)                  1.5548         estimate D2E/DX2                !
 ! R10   R(4,14)                 1.5714         estimate D2E/DX2                !
 ! R11   R(4,21)                 1.091          estimate D2E/DX2                !
 ! R12   R(5,6)                  1.5413         estimate D2E/DX2                !
 ! R13   R(5,22)                 1.0912         estimate D2E/DX2                !
 ! R14   R(5,23)                 1.0906         estimate D2E/DX2                !
 ! R15   R(6,7)                  1.5445         estimate D2E/DX2                !
 ! R16   R(6,24)                 1.0915         estimate D2E/DX2                !
 ! R17   R(6,25)                 1.0917         estimate D2E/DX2                !
 ! R18   R(7,13)                 1.5418         estimate D2E/DX2                !
 ! R19   R(7,26)                 1.0907         estimate D2E/DX2                !
 ! R20   R(8,9)                  1.5491         estimate D2E/DX2                !
 ! R21   R(8,27)                 1.0902         estimate D2E/DX2                !
 ! R22   R(8,28)                 1.0928         estimate D2E/DX2                !
 ! R23   R(9,10)                 1.5317         estimate D2E/DX2                !
 ! R24   R(9,29)                 1.0886         estimate D2E/DX2                !
 ! R25   R(9,30)                 1.0894         estimate D2E/DX2                !
 ! R26   R(10,11)                1.5177         estimate D2E/DX2                !
 ! R27   R(10,12)                1.2291         estimate D2E/DX2                !
 ! R28   R(11,31)                1.0894         estimate D2E/DX2                !
 ! R29   R(11,32)                1.0889         estimate D2E/DX2                !
 ! R30   R(11,33)                1.0888         estimate D2E/DX2                !
 ! R31   R(13,34)                1.0899         estimate D2E/DX2                !
 ! R32   R(13,35)                1.0905         estimate D2E/DX2                !
 ! R33   R(13,36)                1.0895         estimate D2E/DX2                !
 ! R34   R(14,15)                1.541          estimate D2E/DX2                !
 ! R35   R(14,16)                1.5414         estimate D2E/DX2                !
 ! R36   R(14,17)                1.4092         estimate D2E/DX2                !
 ! R37   R(15,37)                1.0908         estimate D2E/DX2                !
 ! R38   R(15,38)                1.0902         estimate D2E/DX2                !
 ! R39   R(15,39)                1.0899         estimate D2E/DX2                !
 ! R40   R(16,40)                1.0907         estimate D2E/DX2                !
 ! R41   R(16,41)                1.09           estimate D2E/DX2                !
 ! R42   R(16,42)                1.0887         estimate D2E/DX2                !
 ! R43   R(17,43)                0.9623         estimate D2E/DX2                !
 ! A1    A(2,1,7)              125.9587         estimate D2E/DX2                !
 ! A2    A(2,1,8)              116.9847         estimate D2E/DX2                !
 ! A3    A(7,1,8)              117.0424         estimate D2E/DX2                !
 ! A4    A(1,2,3)              128.4912         estimate D2E/DX2                !
 ! A5    A(1,2,18)             117.3098         estimate D2E/DX2                !
 ! A6    A(3,2,18)             114.1656         estimate D2E/DX2                !
 ! A7    A(2,3,4)              115.8889         estimate D2E/DX2                !
 ! A8    A(2,3,19)             104.7987         estimate D2E/DX2                !
 ! A9    A(2,3,20)             109.5699         estimate D2E/DX2                !
 ! A10   A(4,3,19)             109.9848         estimate D2E/DX2                !
 ! A11   A(4,3,20)             111.1655         estimate D2E/DX2                !
 ! A12   A(19,3,20)            104.6663         estimate D2E/DX2                !
 ! A13   A(3,4,5)              111.6688         estimate D2E/DX2                !
 ! A14   A(3,4,14)             114.3144         estimate D2E/DX2                !
 ! A15   A(3,4,21)             105.9064         estimate D2E/DX2                !
 ! A16   A(5,4,14)             113.2559         estimate D2E/DX2                !
 ! A17   A(5,4,21)             106.2281         estimate D2E/DX2                !
 ! A18   A(14,4,21)            104.5713         estimate D2E/DX2                !
 ! A19   A(4,5,6)              116.7748         estimate D2E/DX2                !
 ! A20   A(4,5,22)             108.8023         estimate D2E/DX2                !
 ! A21   A(4,5,23)             109.7375         estimate D2E/DX2                !
 ! A22   A(6,5,22)             108.1195         estimate D2E/DX2                !
 ! A23   A(6,5,23)             107.3362         estimate D2E/DX2                !
 ! A24   A(22,5,23)            105.4816         estimate D2E/DX2                !
 ! A25   A(5,6,7)              116.7087         estimate D2E/DX2                !
 ! A26   A(5,6,24)             108.1191         estimate D2E/DX2                !
 ! A27   A(5,6,25)             109.1687         estimate D2E/DX2                !
 ! A28   A(7,6,24)             109.022          estimate D2E/DX2                !
 ! A29   A(7,6,25)             108.5715         estimate D2E/DX2                !
 ! A30   A(24,6,25)            104.572          estimate D2E/DX2                !
 ! A31   A(1,7,6)              115.2271         estimate D2E/DX2                !
 ! A32   A(1,7,13)             113.3359         estimate D2E/DX2                !
 ! A33   A(1,7,26)             104.7422         estimate D2E/DX2                !
 ! A34   A(6,7,13)             112.6529         estimate D2E/DX2                !
 ! A35   A(6,7,26)             103.8133         estimate D2E/DX2                !
 ! A36   A(13,7,26)            105.7504         estimate D2E/DX2                !
 ! A37   A(1,8,9)              115.0396         estimate D2E/DX2                !
 ! A38   A(1,8,27)             108.0284         estimate D2E/DX2                !
 ! A39   A(1,8,28)             110.8659         estimate D2E/DX2                !
 ! A40   A(9,8,27)             109.0865         estimate D2E/DX2                !
 ! A41   A(9,8,28)             108.953          estimate D2E/DX2                !
 ! A42   A(27,8,28)            104.3055         estimate D2E/DX2                !
 ! A43   A(8,9,10)             115.7227         estimate D2E/DX2                !
 ! A44   A(8,9,29)             110.2914         estimate D2E/DX2                !
 ! A45   A(8,9,30)             109.2301         estimate D2E/DX2                !
 ! A46   A(10,9,29)            108.2305         estimate D2E/DX2                !
 ! A47   A(10,9,30)            106.737          estimate D2E/DX2                !
 ! A48   A(29,9,30)            106.1581         estimate D2E/DX2                !
 ! A49   A(9,10,11)            116.9302         estimate D2E/DX2                !
 ! A50   A(9,10,12)            122.6008         estimate D2E/DX2                !
 ! A51   A(11,10,12)           120.4685         estimate D2E/DX2                !
 ! A52   A(10,11,31)           110.1356         estimate D2E/DX2                !
 ! A53   A(10,11,32)           110.1007         estimate D2E/DX2                !
 ! A54   A(10,11,33)           110.2024         estimate D2E/DX2                !
 ! A55   A(31,11,32)           108.5776         estimate D2E/DX2                !
 ! A56   A(31,11,33)           108.6406         estimate D2E/DX2                !
 ! A57   A(32,11,33)           109.1446         estimate D2E/DX2                !
 ! A58   A(7,13,34)            111.6232         estimate D2E/DX2                !
 ! A59   A(7,13,35)            111.2267         estimate D2E/DX2                !
 ! A60   A(7,13,36)            111.9363         estimate D2E/DX2                !
 ! A61   A(34,13,35)           106.9774         estimate D2E/DX2                !
 ! A62   A(34,13,36)           107.2972         estimate D2E/DX2                !
 ! A63   A(35,13,36)           107.5206         estimate D2E/DX2                !
 ! A64   A(4,14,15)            113.1578         estimate D2E/DX2                !
 ! A65   A(4,14,16)            113.0971         estimate D2E/DX2                !
 ! A66   A(4,14,17)            109.8651         estimate D2E/DX2                !
 ! A67   A(15,14,16)           108.4901         estimate D2E/DX2                !
 ! A68   A(15,14,17)           105.7306         estimate D2E/DX2                !
 ! A69   A(16,14,17)           106.0032         estimate D2E/DX2                !
 ! A70   A(14,15,37)           111.6563         estimate D2E/DX2                !
 ! A71   A(14,15,38)           110.9793         estimate D2E/DX2                !
 ! A72   A(14,15,39)           112.6585         estimate D2E/DX2                !
 ! A73   A(37,15,38)           107.2502         estimate D2E/DX2                !
 ! A74   A(37,15,39)           106.5001         estimate D2E/DX2                !
 ! A75   A(38,15,39)           107.5007         estimate D2E/DX2                !
 ! A76   A(14,16,40)           111.4336         estimate D2E/DX2                !
 ! A77   A(14,16,41)           111.2101         estimate D2E/DX2                !
 ! A78   A(14,16,42)           112.9849         estimate D2E/DX2                !
 ! A79   A(40,16,41)           107.2473         estimate D2E/DX2                !
 ! A80   A(40,16,42)           105.9875         estimate D2E/DX2                !
 ! A81   A(41,16,42)           107.65           estimate D2E/DX2                !
 ! A82   A(14,17,43)           107.3911         estimate D2E/DX2                !
 ! D1    D(7,1,2,3)             -4.7727         estimate D2E/DX2                !
 ! D2    D(7,1,2,18)           177.4668         estimate D2E/DX2                !
 ! D3    D(8,1,2,3)            176.6444         estimate D2E/DX2                !
 ! D4    D(8,1,2,18)            -1.1161         estimate D2E/DX2                !
 ! D5    D(2,1,7,6)            -23.5121         estimate D2E/DX2                !
 ! D6    D(2,1,7,13)           108.3192         estimate D2E/DX2                !
 ! D7    D(2,1,7,26)          -136.8959         estimate D2E/DX2                !
 ! D8    D(8,1,7,6)            155.0701         estimate D2E/DX2                !
 ! D9    D(8,1,7,13)           -73.0987         estimate D2E/DX2                !
 ! D10   D(8,1,7,26)            41.6863         estimate D2E/DX2                !
 ! D11   D(2,1,8,9)            108.256          estimate D2E/DX2                !
 ! D12   D(2,1,8,27)          -129.631          estimate D2E/DX2                !
 ! D13   D(2,1,8,28)           -15.9184         estimate D2E/DX2                !
 ! D14   D(7,1,8,9)            -70.4561         estimate D2E/DX2                !
 ! D15   D(7,1,8,27)            51.6569         estimate D2E/DX2                !
 ! D16   D(7,1,8,28)           165.3694         estimate D2E/DX2                !
 ! D17   D(1,2,3,4)            -36.5726         estimate D2E/DX2                !
 ! D18   D(1,2,3,19)          -157.982          estimate D2E/DX2                !
 ! D19   D(1,2,3,20)            90.1884         estimate D2E/DX2                !
 ! D20   D(18,2,3,4)           141.2464         estimate D2E/DX2                !
 ! D21   D(18,2,3,19)           19.8371         estimate D2E/DX2                !
 ! D22   D(18,2,3,20)          -91.9926         estimate D2E/DX2                !
 ! D23   D(2,3,4,5)             78.1204         estimate D2E/DX2                !
 ! D24   D(2,3,4,14)          -151.6591         estimate D2E/DX2                !
 ! D25   D(2,3,4,21)           -37.0879         estimate D2E/DX2                !
 ! D26   D(19,3,4,5)          -163.2848         estimate D2E/DX2                !
 ! D27   D(19,3,4,14)          -33.0643         estimate D2E/DX2                !
 ! D28   D(19,3,4,21)           81.5068         estimate D2E/DX2                !
 ! D29   D(20,3,4,5)           -47.8359         estimate D2E/DX2                !
 ! D30   D(20,3,4,14)           82.3846         estimate D2E/DX2                !
 ! D31   D(20,3,4,21)         -163.0442         estimate D2E/DX2                !
 ! D32   D(3,4,5,6)            -36.1372         estimate D2E/DX2                !
 ! D33   D(3,4,5,22)          -158.806          estimate D2E/DX2                !
 ! D34   D(3,4,5,23)            86.2499         estimate D2E/DX2                !
 ! D35   D(14,4,5,6)          -166.904          estimate D2E/DX2                !
 ! D36   D(14,4,5,22)           70.4271         estimate D2E/DX2                !
 ! D37   D(14,4,5,23)          -44.517          estimate D2E/DX2                !
 ! D38   D(21,4,5,6)            78.8735         estimate D2E/DX2                !
 ! D39   D(21,4,5,22)          -43.7954         estimate D2E/DX2                !
 ! D40   D(21,4,5,23)         -158.7395         estimate D2E/DX2                !
 ! D41   D(3,4,14,15)         -174.3534         estimate D2E/DX2                !
 ! D42   D(3,4,14,16)           61.7698         estimate D2E/DX2                !
 ! D43   D(3,4,14,17)          -56.4442         estimate D2E/DX2                !
 ! D44   D(5,4,14,15)          -44.9197         estimate D2E/DX2                !
 ! D45   D(5,4,14,16)         -168.7965         estimate D2E/DX2                !
 ! D46   D(5,4,14,17)           72.9895         estimate D2E/DX2                !
 ! D47   D(21,4,14,15)          70.2941         estimate D2E/DX2                !
 ! D48   D(21,4,14,16)         -53.5827         estimate D2E/DX2                !
 ! D49   D(21,4,14,17)        -171.7967         estimate D2E/DX2                !
 ! D50   D(4,5,6,7)            -46.7246         estimate D2E/DX2                !
 ! D51   D(4,5,6,24)          -169.991          estimate D2E/DX2                !
 ! D52   D(4,5,6,25)            76.8045         estimate D2E/DX2                !
 ! D53   D(22,5,6,7)            76.2974         estimate D2E/DX2                !
 ! D54   D(22,5,6,24)          -46.9691         estimate D2E/DX2                !
 ! D55   D(22,5,6,25)         -160.1735         estimate D2E/DX2                !
 ! D56   D(23,5,6,7)          -170.3513         estimate D2E/DX2                !
 ! D57   D(23,5,6,24)           66.3823         estimate D2E/DX2                !
 ! D58   D(23,5,6,25)          -46.8222         estimate D2E/DX2                !
 ! D59   D(5,6,7,1)             75.2016         estimate D2E/DX2                !
 ! D60   D(5,6,7,13)           -56.9517         estimate D2E/DX2                !
 ! D61   D(5,6,7,26)          -170.8748         estimate D2E/DX2                !
 ! D62   D(24,6,7,1)          -161.9985         estimate D2E/DX2                !
 ! D63   D(24,6,7,13)           65.8483         estimate D2E/DX2                !
 ! D64   D(24,6,7,26)          -48.0749         estimate D2E/DX2                !
 ! D65   D(25,6,7,1)           -48.6338         estimate D2E/DX2                !
 ! D66   D(25,6,7,13)          179.2129         estimate D2E/DX2                !
 ! D67   D(25,6,7,26)           65.2898         estimate D2E/DX2                !
 ! D68   D(1,7,13,34)           59.4096         estimate D2E/DX2                !
 ! D69   D(1,7,13,35)          178.811          estimate D2E/DX2                !
 ! D70   D(1,7,13,36)          -60.8847         estimate D2E/DX2                !
 ! D71   D(6,7,13,34)         -167.5097         estimate D2E/DX2                !
 ! D72   D(6,7,13,35)          -48.1084         estimate D2E/DX2                !
 ! D73   D(6,7,13,36)           72.1959         estimate D2E/DX2                !
 ! D74   D(26,7,13,34)         -54.7718         estimate D2E/DX2                !
 ! D75   D(26,7,13,35)          64.6295         estimate D2E/DX2                !
 ! D76   D(26,7,13,36)        -175.0661         estimate D2E/DX2                !
 ! D77   D(1,8,9,10)           -67.4891         estimate D2E/DX2                !
 ! D78   D(1,8,9,29)            55.7649         estimate D2E/DX2                !
 ! D79   D(1,8,9,30)           172.0737         estimate D2E/DX2                !
 ! D80   D(27,8,9,10)          170.9702         estimate D2E/DX2                !
 ! D81   D(27,8,9,29)          -65.7758         estimate D2E/DX2                !
 ! D82   D(27,8,9,30)           50.533          estimate D2E/DX2                !
 ! D83   D(28,8,9,10)           57.6868         estimate D2E/DX2                !
 ! D84   D(28,8,9,29)         -179.0591         estimate D2E/DX2                !
 ! D85   D(28,8,9,30)          -62.7503         estimate D2E/DX2                !
 ! D86   D(8,9,10,11)          163.9485         estimate D2E/DX2                !
 ! D87   D(8,9,10,12)          -16.3158         estimate D2E/DX2                !
 ! D88   D(29,9,10,11)          39.6183         estimate D2E/DX2                !
 ! D89   D(29,9,10,12)        -140.6459         estimate D2E/DX2                !
 ! D90   D(30,9,10,11)         -74.2731         estimate D2E/DX2                !
 ! D91   D(30,9,10,12)         105.4626         estimate D2E/DX2                !
 ! D92   D(9,10,11,31)         179.1342         estimate D2E/DX2                !
 ! D93   D(9,10,11,32)         -61.1619         estimate D2E/DX2                !
 ! D94   D(9,10,11,33)          59.2879         estimate D2E/DX2                !
 ! D95   D(12,10,11,31)         -0.6075         estimate D2E/DX2                !
 ! D96   D(12,10,11,32)        119.0964         estimate D2E/DX2                !
 ! D97   D(12,10,11,33)       -120.4538         estimate D2E/DX2                !
 ! D98   D(4,14,15,37)        -177.593          estimate D2E/DX2                !
 ! D99   D(4,14,15,38)         -57.991          estimate D2E/DX2                !
 ! D100  D(4,14,15,39)          62.6116         estimate D2E/DX2                !
 ! D101  D(16,14,15,37)        -51.228          estimate D2E/DX2                !
 ! D102  D(16,14,15,38)         68.3741         estimate D2E/DX2                !
 ! D103  D(16,14,15,39)       -171.0234         estimate D2E/DX2                !
 ! D104  D(17,14,15,37)         62.1127         estimate D2E/DX2                !
 ! D105  D(17,14,15,38)       -178.2853         estimate D2E/DX2                !
 ! D106  D(17,14,15,39)        -57.6827         estimate D2E/DX2                !
 ! D107  D(4,14,16,40)         175.337          estimate D2E/DX2                !
 ! D108  D(4,14,16,41)          55.7319         estimate D2E/DX2                !
 ! D109  D(4,14,16,42)         -65.4589         estimate D2E/DX2                !
 ! D110  D(15,14,16,40)         48.9368         estimate D2E/DX2                !
 ! D111  D(15,14,16,41)        -70.6683         estimate D2E/DX2                !
 ! D112  D(15,14,16,42)        168.1409         estimate D2E/DX2                !
 ! D113  D(17,14,16,40)        -64.2235         estimate D2E/DX2                !
 ! D114  D(17,14,16,41)        176.1714         estimate D2E/DX2                !
 ! D115  D(17,14,16,42)         54.9806         estimate D2E/DX2                !
 ! D116  D(4,14,17,43)         -57.8083         estimate D2E/DX2                !
 ! D117  D(15,14,17,43)         64.6159         estimate D2E/DX2                !
 ! D118  D(16,14,17,43)        179.6746         estimate D2E/DX2                !
 --------------------------------------------------------------------------------
 Trust Radius=3.00D-01 FncErr=1.00D-07 GrdErr=1.00D-06
 Number of steps in this run= 253 maximum allowed number of steps= 258.
 GradGradGradGradGradGradGradGradGradGradGradGradGradGradGradGradGradGrad

                          Input orientation:                          
 ---------------------------------------------------------------------
 Center     Atomic      Atomic             Coordinates (Angstroms)
 Number     Number       Type             X           Y           Z
 ---------------------------------------------------------------------
      1          6           0        0.022200   -1.301600    2.266600
      2          6           0        0.041200   -0.338300    1.315600
      3          6           0        0.778800   -0.336300   -0.017500
      4          6           0        2.181300   -1.006200   -0.018100
      5          6           0        2.076800   -2.556900   -0.058900
      6          6           0        0.911900   -3.195100    0.722900
      7          6           0        0.679200   -2.684200    2.161800
      8          6           0       -0.751400   -0.994100    3.551600
      9          6           0       -2.080700   -1.771700    3.718600
     10          6           0       -3.191600   -1.409700    2.728100
     11          6           0       -4.350200   -2.382800    2.608900
     12          8           0       -3.169100   -0.381900    2.054400
     13          6           0        1.926500   -2.837000    3.055200
     14          6           0        3.176400   -0.423100   -1.085400
     15          6           0        4.508100   -1.195200   -1.157900
     16          6           0        3.488600    1.070700   -0.868500
     17          8           0        2.608900   -0.518600   -2.371700
     18          1           0       -0.505700    0.573000    1.520800
     19          1           0        0.868600    0.714300   -0.283700
     20          1           0        0.138100   -0.763200   -0.790200
     21          1           0        2.632500   -0.756200    0.943300
     22          1           0        3.009600   -2.982200    0.314800
     23          1           0        1.997100   -2.893600   -1.093200
     24          1           0        1.072400   -4.274400    0.750200
     25          1           0       -0.012200   -3.069100    0.155500
     26          1           0       -0.061500   -3.374900    2.566800
     27          1           0       -0.100700   -1.214500    4.398100
     28          1           0       -0.953200    0.076400    3.637700
     29          1           0       -1.901900   -2.843500    3.653000
     30          1           0       -2.479000   -1.591300    4.716400
     31          1           0       -5.079300   -2.011500    1.889700
     32          1           0       -3.990700   -3.352900    2.269100
     33          1           0       -4.841900   -2.501900    3.573000
     34          1           0        1.688500   -2.681000    4.107300
     35          1           0        2.353000   -3.837000    2.970100
     36          1           0        2.706600   -2.124100    2.790400
     37          1           0        5.195800   -0.745200   -1.875200
     38          1           0        5.009100   -1.201100   -0.189600
     39          1           0        4.375800   -2.232600   -1.464800
     40          1           0        4.242300    1.426600   -1.572000
     41          1           0        3.872600    1.251600    0.135500
     42          1           0        2.619900    1.711500   -1.010100
     43          1           0        2.410400   -1.446700   -2.530300
 ---------------------------------------------------------------------
                    Distance matrix (angstroms):
                    1          2          3          4          5
     1  C    0.000000
     2  C    1.353776   0.000000
     3  C    2.592559   1.523553   0.000000
     4  C    3.157345   2.608615   1.554276   0.000000
     5  C    3.347403   3.309849   2.572466   1.554753   0.000000
     6  C    2.599984   3.044785   2.956120   2.636615   1.541267
     7  C    1.534345   2.574169   3.204981   3.134318   2.626975
     8  C    1.531091   2.461297   3.938615   4.619917   4.845283
     9  C    2.598362   3.511624   4.918898   5.719577   5.671935
    10  C    3.248566   3.687011   4.945158   6.047519   6.069553
    11  C    4.517084   5.013681   6.114964   7.173329   6.960876
    12  O    3.327953   3.294503   4.458785   5.771636   6.059384
    13  C    2.570156   3.581071   4.124585   3.586353   3.130282
    14  C    4.685792   3.949870   2.626106   1.571419   2.610733
    15  C    5.644628   5.177420   3.993232   2.597857   2.995538
    16  C    5.241430   4.317423   3.169679   2.597254   3.975942
    17  O    5.368234   4.496863   2.987433   2.441317   3.128393
    18  H    2.085431   1.082439   2.200712   3.475925   4.354427
    19  H    3.359208   2.085742   1.087514   2.180331   3.494429
    20  H    3.106016   2.150424   1.090782   2.197693   2.740569
    21  H    2.976953   2.651053   2.129708   1.091041   2.134415
    22  H    3.944426   4.099171   3.476734   2.168289   1.091168
    23  H    4.209863   4.019629   3.030044   2.179919   1.090640
    24  H    3.498561   4.108033   4.022959   3.535686   2.147852
    25  H    2.753540   2.967482   2.850229   3.016146   2.161536
    26  H    2.096592   3.285877   4.076494   4.162043   3.483641
    27  H    2.136816   3.207751   4.587186   4.975313   5.138910
    28  H    2.174903   2.559874   4.065788   4.935786   5.457107
    29  H    2.828731   3.938922   5.190836   5.790092   5.448889
    30  H    3.513040   4.414392   5.882015   6.669050   6.670171
    31  H    5.164428   5.417445   6.384438   7.574077   7.436684
    32  H    4.506795   5.123787   6.089051   6.987980   6.547347
    33  H    5.177535   5.798421   7.012402   8.028602   7.814226
    34  H    2.840330   3.999429   4.831061   4.479591   4.186096
    35  H    3.515081   4.508070   4.864027   4.119739   3.299967
    36  H    2.856025   3.531073   3.846680   3.068112   2.949996
    37  H    6.650581   6.075909   4.809172   3.550233   4.038485
    38  H    5.559873   5.262137   4.321219   2.839692   3.233212
    39  H    5.808953   5.487053   4.316137   2.900488   2.714245
    40  H    6.323541   5.394659   4.185704   3.546948   4.779868
    41  H    5.087828   4.312777   3.480867   2.825199   4.215135
    42  H    5.153987   4.032401   2.927181   2.926145   4.406697
    43  H    5.360485   4.651087   3.195195   2.560796   2.729771
                    6          7          8          9         10
     6  C    0.000000
     7  C    1.544539   0.000000
     8  C    3.951267   2.614306   0.000000
     9  C    4.467207   3.297473   1.549061   0.000000
    10  C    4.903794   4.114382   2.608726   1.531742   0.000000
    11  C    5.648586   5.058221   3.970961   2.599136   1.517724
    12  O    5.132402   4.485703   2.908895   2.426050   1.229126
    13  C    2.568516   1.541839   3.288441   4.199121   5.323451
    14  C    4.010224   4.678984   6.103722   7.248051   7.487829
    15  C    4.524341   5.281856   7.062731   8.217353   8.627421
    16  C    5.231538   5.583433   6.463612   7.754858   7.982042
    17  O    4.429448   5.382024   6.826654   7.788091   7.774820
    18  H    4.104243   3.524801   2.576882   3.578906   3.550033
    19  H    4.037143   4.191198   4.500284   5.558504   5.483388
    20  H    2.966880   3.563332   4.437990   5.125371   4.887054
    21  H    2.992870   3.002883   4.279089   5.563073   6.126395
    22  H    2.147607   2.988474   5.345516   6.241980   6.837518
    23  H    2.137003   3.517916   5.721584   6.406288   6.612632
    24  H    1.091510   2.162396   4.683424   5.001694   5.504570
    25  H    1.091687   2.156715   4.047905   4.319447   4.413668
    26  H    2.092798   1.090747   2.667209   2.823838   3.699399
    27  H    4.295955   2.787346   1.090206   2.166239   3.518617
    28  H    4.762076   3.530428   1.092752   2.166397   2.836600
    29  H    4.077570   2.985152   2.180416   1.088590   2.138819
    30  H    5.478907   4.206500   2.167489   1.089400   2.119933
    31  H    6.217460   5.804040   4.746339   3.520509   2.151392
    32  H    5.143065   4.718754   4.207352   2.872167   2.150644
    33  H    6.458313   5.701514   4.359600   2.859828   2.151801
    34  H    3.510209   2.191727   3.017871   3.896766   5.228171
    35  H    2.745672   2.187214   4.249414   4.948072   6.057470
    36  H    2.939821   2.195268   3.716731   4.889170   5.941634
    37  H    5.577090   6.360563   8.054893   9.235353   9.590642
    38  H    4.647122   5.145552   6.871884   8.115718   8.706777
    39  H    4.208449   5.198175   7.279171   8.292554   8.690404
    40  H    6.141518   6.598153   7.553020   8.843071   9.044243
    41  H    5.374377   5.458408   6.172057   7.577647   7.981667
    42  H    5.476794   5.757555   6.284508   7.522561   7.582187
    43  H    3.985689   5.152112   6.869595   7.702231   7.683394
                   11         12         13         14         15
    11  C    0.000000
    12  O    2.388738   0.000000
    13  C    6.308918   5.744063   0.000000
    14  C    8.610342   7.079930   4.953154   0.000000
    15  C    9.698900   8.361802   5.206763   1.541045   0.000000
    16  C    9.244769   7.414739   5.753755   1.541413   2.501487
    17  O    8.758464   7.279721   5.940698   1.409164   2.353308
    18  H    4.970000   2.879282   4.460726   4.619779   5.953163
    19  H    6.722725   4.792848   4.987899   2.694873   4.201949
    20  H    5.858483   4.378894   4.720818   3.071494   4.406669
    21  H    7.360581   5.918886   3.047669   2.126595   2.850550
    22  H    7.732324   6.925612   2.950251   2.921879   2.758209
    23  H    7.365778   6.550240   4.149387   2.737550   3.032139
    24  H    6.036349   5.902780   2.847566   4.756969   4.992630
    25  H    5.030748   4.559921   3.495810   4.325311   5.066521
    26  H    4.402157   4.344857   2.116605   5.704006   6.285358
    27  H    4.756513   3.949839   2.923256   6.436961   7.218763
    28  H    4.318067   2.761719   4.137617   6.293709   7.378384
    29  H    2.701215   3.196997   3.874797   7.355264   8.182283
    30  H    2.927357   3.004185   4.870296   8.185910   9.136950
    31  H    1.089357   2.516264   7.149900   8.918005  10.093188
    32  H    1.088944   3.089978   5.991441   8.438230   9.414329
    33  H    1.088780   3.098194   6.796444   9.503433  10.559895
    34  H    6.228966   5.752959   1.089906   5.854579   6.154679
    35  H    6.868628   6.577979   1.090479   5.364679   5.353872
    36  H    7.063872   6.172585   1.089450   4.258631   4.438167
    37  H   10.673097   9.249070   6.274774   2.192147   1.090849
    38  H    9.839945   8.519952   4.765220   2.183239   1.090248
    39  H    9.631234   8.528504   5.176366   2.203814   1.089904
    40  H   10.287007   8.446911   6.704640   2.189592   2.667576
    41  H    9.324216   7.479040   5.387820   2.186301   2.839643
    42  H    8.856791   6.876482   6.139733   2.207233   3.469301
    43  H    8.543616   7.299595   5.776236   1.929313   2.519341
                   16         17         18         19         20
    16  C    0.000000
    17  O    2.357829   0.000000
    18  H    4.680907   5.103320   0.000000
    19  H    2.708027   2.984699   2.272639   0.000000
    20  H    3.820363   2.943777   2.746021   1.724291   0.000000
    21  H    2.711658   3.323588   3.456672   2.603698   3.037615
    22  H    4.249193   3.667038   5.143075   4.313490   3.793481
    23  H    4.241549   2.765771   5.011419   3.865973   2.843641
    24  H    6.085089   5.119876   5.155726   5.098785   3.946425
    25  H    5.517438   4.445442   3.920775   3.909325   2.496821
    26  H    6.645890   6.299069   4.108204   5.070699   4.257965
    27  H    6.770693   7.325053   3.411457   5.155489   5.213363
    28  H    6.405003   7.011096   2.219940   4.370726   4.637042
    29  H    8.051237   7.877150   4.262408   5.985918   5.313311
    30  H    8.595906   8.790823   4.334740   6.443851   6.152853
    31  H    9.514018   8.916092   5.266265   6.894285   5.996781
    32  H    9.238652   8.551316   5.302628   6.831669   5.754377
    33  H   10.093940   9.735880   5.698172   7.604465   6.845509
    34  H    6.486463   6.892064   4.700320   5.610809   5.483357
    35  H    6.333242   6.293814   5.451673   5.788349   5.337966
    36  H    4.919941   5.406889   4.382363   4.569994   4.611934
    37  H    2.688023   2.643844   6.765912   4.836080   5.172802
    38  H    2.816718   3.314865   6.040357   4.563042   4.927384
    39  H    3.471957   2.623395   6.372930   4.730715   4.535672
    40  H    1.090707   2.662953   5.730406   3.680888   4.717085
    41  H    1.090044   3.319126   4.642097   3.080330   4.343136
    42  H    1.088722   2.612934   4.179834   2.142222   3.511670
    43  H    3.203342   0.962250   5.384630   3.477683   2.942527
                   21         22         23         24         25
    21  H    0.000000
    22  H    2.343564   0.000000
    23  H    3.019858   1.736511   0.000000
    24  H    3.853431   2.368987   2.481895   0.000000
    25  H    3.600635   3.027244   2.372201   1.727071   0.000000
    26  H    4.092796   3.828495   4.226711   2.322685   2.431113
    27  H    4.429003   5.428818   6.113470   4.903705   4.631094
    28  H    4.561826   6.008368   6.317166   5.600908   4.785955
    29  H    5.679796   5.940172   6.142567   4.395473   3.981754
    30  H    6.407894   7.171709   7.448685   5.961729   5.391735
    31  H    7.870407   8.297763   7.729892   6.653014   5.459072
    32  H    7.236531   7.277424   6.882570   5.365743   4.514013
    33  H    8.113535   8.514259   8.288472   6.788881   5.943654
    34  H    3.821896   4.027292   5.213984   3.766779   4.319690
    35  H    3.698292   2.865733   4.186535   2.599848   3.755771
    36  H    2.299656   2.637563   4.022172   3.384792   3.902255
    37  H    3.809799   3.818342   3.931772   6.029130   6.053719
    38  H    2.670136   2.724837   3.571161   5.081929   5.368610
    39  H    3.319307   2.365455   2.496642   4.470752   4.751805
    40  H    3.699028   4.951473   4.892269   6.924036   6.426223
    41  H    2.494323   4.324579   4.712737   6.225404   5.810380
    42  H    3.147296   4.892652   4.647766   6.428407   5.580386
    43  H    3.548523   3.288069   2.080767   4.532969   3.964176
                   26         27         28         29         30
    26  H    0.000000
    27  H    2.832406   0.000000
    28  H    3.722019   1.723771   0.000000
    29  H    2.202110   2.540302   3.070192   0.000000
    30  H    3.694092   2.428910   2.504572   1.741226   0.000000
    31  H    5.243629   5.631495   4.943635   3.727911   3.863724
    32  H    3.940523   4.923159   4.781168   2.556903   3.373092
    33  H    4.962539   4.981683   4.666241   2.960860   2.778462
    34  H    2.432517   2.331614   3.847383   3.622674   4.350460
    35  H    2.491184   3.864885   5.166367   4.422394   5.607224
    36  H    3.045796   3.360507   4.353648   4.743405   5.557319
    37  H    7.367896   8.223591   8.299235   9.238030  10.152223
    38  H    6.167182   6.867112   7.199254   8.076198   8.960621
    39  H    6.103137   7.446420   7.730797   8.122475   9.252393
    40  H    7.662034   7.840864   7.480457   9.126093   9.686463
    41  H    6.541626   6.327600   6.077405   7.904904   8.331239
    42  H    6.771675   6.723970   6.086267   7.933423   8.348657
    43  H    5.984035   7.373077   7.188732   7.666823   8.743100
                   31         32         33         34         35
    31  H    0.000000
    32  H    1.768714   0.000000
    33  H    1.769279   1.774513   0.000000
    34  H    7.153258   6.006974   6.554668   0.000000
    35  H    7.729088   6.400647   7.342518   1.752461   0.000000
    36  H    7.838634   6.829021   7.598358   1.755247   1.758224
    37  H   11.016155  10.409952  11.555271   7.199915   6.412306
    38  H   10.332282   9.574542  10.625038   5.628485   4.897606
    39  H   10.034962   9.230136  10.507994   6.202495   5.131682
    40  H   10.521223  10.265474  11.154677   7.459807   7.204555
    41  H    9.688217   9.358694  10.091961   6.000902   6.019800
    42  H    9.030352   8.949935   9.717819   6.808035   6.833673
    43  H    8.714987   8.224471   9.537273   6.789873   5.997602
                   36         37         38         39         40
    36  H    0.000000
    37  H    5.464916   0.000000
    38  H    3.877349   1.756118   0.000000
    39  H    4.572169   1.747337   1.758180   0.000000
    40  H    5.830641   2.391194   3.066565   3.663203   0.000000
    41  H    4.450101   3.127456   2.722693   3.867017   1.755807
    42  H    5.400291   3.663200   3.855481   4.341182   1.740426
    43  H    5.371820   2.946135   3.506057   2.369752   3.539781
                   41         42         43
    41  H    0.000000
    42  H    1.758740   0.000000
    43  H    4.065137   3.511285   0.000000
 Stoichiometry    C15H26O2
 Framework group  C1[X(C15H26O2)]
 Deg. of freedom   123
 Full point group                 C1      NOp   1
 Largest Abelian subgroup         C1      NOp   1
 Largest concise Abelian subgroup C1      NOp   1
                         Standard orientation:                         
 ---------------------------------------------------------------------
 Center     Atomic      Atomic             Coordinates (Angstroms)
 Number     Number       Type             X           Y           Z
 ---------------------------------------------------------------------
      1          6           0       -1.113770    0.334153   -0.633473
      2          6           0       -0.440590   -0.840115   -0.658618
      3          6           0        0.899455   -1.178831   -0.017708
      4          6           0        1.961137   -0.043683   -0.024363
      5          6           0        1.679718    1.012052    1.081749
      6          6           0        0.201086    1.333661    1.374524
      7          6           0       -0.709096    1.588004    0.152854
      8          6           0       -2.413600    0.407187   -1.439294
      9          6           0       -3.709606    0.440715   -0.591454
     10          6           0       -4.030002   -0.840729    0.184099
     11          6           0       -5.055657   -0.732070    1.297522
     12          8           0       -3.497169   -1.918957   -0.069403
     13          6           0       -0.193631    2.731412   -0.743910
     14          6           0        3.448937   -0.549340   -0.035321
     15          6           0        4.477429    0.590545    0.097677
     16          6           0        3.796764   -1.377939   -1.287676
     17          8           0        3.674417   -1.397885    1.066891
     18          1           0       -0.875875   -1.649964   -1.229885
     19          1           0        1.267142   -2.034924   -0.578598
     20          1           0        0.736040   -1.559334    0.991409
     21          1           0        1.839968    0.473480   -0.977375
     22          1           0        2.183237    1.942847    0.815784
     23          1           0        2.134799    0.692701    2.020051
     24          1           0        0.166772    2.204834    2.031240
     25          1           0       -0.230914    0.525376    1.967677
     26          1           0       -1.638702    1.952269    0.592025
     27          1           0       -2.373364    1.299465   -2.064409
     28          1           0       -2.476822   -0.418982   -2.151723
     29          1           0       -3.676773    1.267615    0.115785
     30          1           0       -4.560377    0.633501   -1.243999
     31          1           0       -5.209203   -1.705296    1.762230
     32          1           0       -4.709093   -0.034893    2.058860
     33          1           0       -6.006918   -0.382435    0.899653
     34          1           0       -0.945589    3.043783   -1.468395
     35          1           0        0.064054    3.611006   -0.153100
     36          1           0        0.694556    2.440682   -1.303822
     37          1           0        5.501084    0.217313    0.044966
     38          1           0        4.357566    1.319918   -0.703751
     39          1           0        4.391317    1.125544    1.043325
     40          1           0        4.854001   -1.645317   -1.307699
     41          1           0        3.587137   -0.820076   -2.200388
     42          1           0        3.248847   -2.317186   -1.341676
     43          1           0        3.467672   -0.897313    1.862259
 ---------------------------------------------------------------------
 Rotational constants (GHZ):      0.8634277      0.2202972      0.2029619
 Standard basis: 6-31G(d) (6D, 7F)
 There are   307 symmetry adapted basis functions of A   symmetry.
 Integral buffers will be    131072 words long.
 Raffenetti 2 integral format.
 Two-electron integral symmetry is turned on.
   307 basis functions,   580 primitive gaussians,   307 cartesian basis functions
    66 alpha electrons       66 beta electrons
       nuclear repulsion energy      1289.9743172651 Hartrees.
 NAtoms=   43 NActive=   43 NUniq=   43 SFac= 7.50D-01 NAtFMM=   80 NAOKFM=F Big=F
 ------------------------------------------------------------------------------
 Polarizable Continuum Model (PCM)
 =================================
 Model                : PCM.
 Atomic radii         : SMD-Coulomb.
 Polarization charges : Total charges.
 Charge compensation  : None.
 Solution method      : Matrix inversion.
 Cavity type          : VdW (van der Waals Surface) (Alpha=1.000).
 Cavity algorithm     : GePol (No added spheres)
                        Default sphere list used, NSphG=   43.
                        Lebedev-Laikov grids with approx.  5.0 points / Ang**2.
                        Smoothing algorithm: Karplus/York (Gamma=1.0000).
                        Polarization charges: spherical gaussians, with
                                              point-specific exponents (IZeta= 3).
                        Self-potential: point-specific (ISelfS= 7).
                        Self-field    : sphere-specific E.n sum rule (ISelfD= 2).
 1st derivatives      : Analytical E(r).r(x)/FMM algorithm (CHGder, D1EAlg=3).
                        Cavity 1st derivative terms included.
 Solvent              : n-Hexane, Eps=   1.881900 Eps(inf)=   1.890350
 ------------------------------------------------------------------------------
 ------------------------------------------------------------------------------
 Atomic radii for non-electrostatic terms: SMD-CDS.
 ------------------------------------------------------------------------------
 Nuclear repulsion after PCM non-electrostatic terms =     1289.9636898032 Hartrees.
 One-electron integrals computed using PRISM.
 NBasis=   307 RedAO= T  NBF=   307
 NBsUse=   307 1.00D-06 NBFU=   307
 Harris functional with IExCor=  402 diagonalized for initial guess.
 ExpMin= 1.61D-01 ExpMax= 5.48D+03 ExpMxC= 8.25D+02 IAcc=1 IRadAn=         1 AccDes= 0.00D+00
 HarFok:  IExCor=  402 AccDes= 0.00D+00 IRadAn=         1 IDoV= 1
 ScaDFX=  1.000000  1.000000  1.000000  1.000000
 FoFCou: FMM=F IPFlag=           0 FMFlag=      100000 FMFlg1=           0
         NFxFlg=           0 DoJE=T BraDBF=F KetDBF=T FulRan=T
         Omega=  0.000000  0.000000  1.000000  0.000000  0.000000 ICntrl=     500 IOpCl=  0
         NMat0=    1 NMatS0=    1 NMatT0=    0 NMatD0=    1 NMtDS0=    0 NMtDT0=    0
         I1Cent=           4 NGrid=           0.
 Petite list used in FoFCou.
 Initial guess orbital symmetries:
       Occupied  (A) (A) (A) (A) (A) (A) (A) (A) (A) (A) (A) (A)
                 (A) (A) (A) (A) (A) (A) (A) (A) (A) (A) (A) (A)
                 (A) (A) (A) (A) (A) (A) (A) (A) (A) (A) (A) (A)
                 (A) (A) (A) (A) (A) (A) (A) (A) (A) (A) (A) (A)
                 (A) (A) (A) (A) (A) (A) (A) (A) (A) (A) (A) (A)
                 (A) (A) (A) (A) (A) (A)
       Virtual   (A) (A) (A) (A) (A) (A) (A) (A) (A) (A) (A) (A)
                 (A) (A) (A) (A) (A) (A) (A) (A) (A) (A) (A) (A)
                 (A) (A) (A) (A) (A) (A) (A) (A) (A) (A) (A) (A)
                 (A) (A) (A) (A) (A) (A) (A) (A) (A) (A) (A) (A)
                 (A) (A) (A) (A) (A) (A) (A) (A) (A) (A) (A) (A)
                 (A) (A) (A) (A) (A) (A) (A) (A) (A) (A) (A) (A)
                 (A) (A) (A) (A) (A) (A) (A) (A) (A) (A) (A) (A)
                 (A) (A) (A) (A) (A) (A) (A) (A) (A) (A) (A) (A)
                 (A) (A) (A) (A) (A) (A) (A) (A) (A) (A) (A) (A)
                 (A) (A) (A) (A) (A) (A) (A) (A) (A) (A) (A) (A)
                 (A) (A) (A) (A) (A) (A) (A) (A) (A) (A) (A) (A)
                 (A) (A) (A) (A) (A) (A) (A) (A) (A) (A) (A) (A)
                 (A) (A) (A) (A) (A) (A) (A) (A) (A) (A) (A) (A)
                 (A) (A) (A) (A) (A) (A) (A) (A) (A) (A) (A) (A)
                 (A) (A) (A) (A) (A) (A) (A) (A) (A) (A) (A) (A)
                 (A) (A) (A) (A) (A) (A) (A) (A) (A) (A) (A) (A)
                 (A) (A) (A) (A) (A) (A) (A) (A) (A) (A) (A) (A)
                 (A) (A) (A) (A) (A) (A) (A) (A) (A) (A) (A) (A)
                 (A) (A) (A) (A) (A) (A) (A) (A) (A) (A) (A) (A)
                 (A) (A) (A) (A) (A) (A) (A) (A) (A) (A) (A) (A)
                 (A)
 The electronic state of the initial guess is 1-A.
 Requested convergence on RMS density matrix=1.00D-08 within 128 cycles.
 Requested convergence on MAX density matrix=1.00D-06.
 Requested convergence on             energy=1.00D-06.
 No special actions if energy rises.
 Error on total polarization charges =  0.02217
 SCF Done:  E(RB3LYP) =  -737.690537673     A.U. after   13 cycles
             Convg  =    0.3578D-08             -V/T =  2.0096
 SMD-CDS (non-electrostatic) energy             (kcal/mol) =      -6.67
 (included in total energy above)

 **********************************************************************

            Population analysis using the SCF density.

 **********************************************************************

 Orbital symmetries:
       Occupied  (A) (A) (A) (A) (A) (A) (A) (A) (A) (A) (A) (A)
                 (A) (A) (A) (A) (A) (A) (A) (A) (A) (A) (A) (A)
                 (A) (A) (A) (A) (A) (A) (A) (A) (A) (A) (A) (A)
                 (A) (A) (A) (A) (A) (A) (A) (A) (A) (A) (A) (A)
                 (A) (A) (A) (A) (A) (A) (A) (A) (A) (A) (A) (A)
                 (A) (A) (A) (A) (A) (A)
       Virtual   (A) (A) (A) (A) (A) (A) (A) (A) (A) (A) (A) (A)
                 (A) (A) (A) (A) (A) (A) (A) (A) (A) (A) (A) (A)
                 (A) (A) (A) (A) (A) (A) (A) (A) (A) (A) (A) (A)
                 (A) (A) (A) (A) (A) (A) (A) (A) (A) (A) (A) (A)
                 (A) (A) (A) (A) (A) (A) (A) (A) (A) (A) (A) (A)
                 (A) (A) (A) (A) (A) (A) (A) (A) (A) (A) (A) (A)
                 (A) (A) (A) (A) (A) (A) (A) (A) (A) (A) (A) (A)
                 (A) (A) (A) (A) (A) (A) (A) (A) (A) (A) (A) (A)
                 (A) (A) (A) (A) (A) (A) (A) (A) (A) (A) (A) (A)
                 (A) (A) (A) (A) (A) (A) (A) (A) (A) (A) (A) (A)
                 (A) (A) (A) (A) (A) (A) (A) (A) (A) (A) (A) (A)
                 (A) (A) (A) (A) (A) (A) (A) (A) (A) (A) (A) (A)
                 (A) (A) (A) (A) (A) (A) (A) (A) (A) (A) (A) (A)
                 (A) (A) (A) (A) (A) (A) (A) (A) (A) (A) (A) (A)
                 (A) (A) (A) (A) (A) (A) (A) (A) (A) (A) (A) (A)
                 (A) (A) (A) (A) (A) (A) (A) (A) (A) (A) (A) (A)
                 (A) (A) (A) (A) (A) (A) (A) (A) (A) (A) (A) (A)
                 (A) (A) (A) (A) (A) (A) (A) (A) (A) (A) (A) (A)
                 (A) (A) (A) (A) (A) (A) (A) (A) (A) (A) (A) (A)
                 (A) (A) (A) (A) (A) (A) (A) (A) (A) (A) (A) (A)
                 (A)
 The electronic state is 1-A.
 Alpha  occ. eigenvalues --  -19.13072 -19.12650 -10.27099 -10.23217 -10.18819
 Alpha  occ. eigenvalues --  -10.18611 -10.18088 -10.17880 -10.17792 -10.17536
 Alpha  occ. eigenvalues --  -10.17514 -10.17444 -10.16885 -10.16830 -10.16492
 Alpha  occ. eigenvalues --  -10.16265 -10.16185  -1.02332  -1.01390  -0.82651
 Alpha  occ. eigenvalues --   -0.79107  -0.77260  -0.75242  -0.74270  -0.72237
 Alpha  occ. eigenvalues --   -0.68844  -0.67980  -0.65539  -0.62163  -0.60734
 Alpha  occ. eigenvalues --   -0.57208  -0.54081  -0.51852  -0.49998  -0.48729
 Alpha  occ. eigenvalues --   -0.46471  -0.46198  -0.45142  -0.45026  -0.43657
 Alpha  occ. eigenvalues --   -0.43092  -0.42593  -0.41976  -0.41056  -0.40623
 Alpha  occ. eigenvalues --   -0.39602  -0.39086  -0.38324  -0.37767  -0.37183
 Alpha  occ. eigenvalues --   -0.36974  -0.36269  -0.36053  -0.35915  -0.34795
 Alpha  occ. eigenvalues --   -0.34133  -0.33422  -0.33287  -0.31649  -0.31134
 Alpha  occ. eigenvalues --   -0.30214  -0.29741  -0.28743  -0.25036  -0.23939
 Alpha  occ. eigenvalues --   -0.21612
 Alpha virt. eigenvalues --   -0.00783   0.03378   0.06607   0.08448   0.10046
 Alpha virt. eigenvalues --    0.11248   0.11560   0.12909   0.13253   0.13913
 Alpha virt. eigenvalues --    0.14832   0.15016   0.15605   0.16145   0.16659
 Alpha virt. eigenvalues --    0.17289   0.17514   0.17856   0.18174   0.18627
 Alpha virt. eigenvalues --    0.19550   0.19958   0.20320   0.20941   0.21194
 Alpha virt. eigenvalues --    0.21758   0.22486   0.23247   0.24017   0.24190
 Alpha virt. eigenvalues --    0.25154   0.25361   0.26156   0.26524   0.27399
 Alpha virt. eigenvalues --    0.28509   0.28724   0.29595   0.30112   0.30800
 Alpha virt. eigenvalues --    0.31622   0.33297   0.35041   0.37503   0.46398
 Alpha virt. eigenvalues --    0.49369   0.50868   0.51656   0.52051   0.52861
 Alpha virt. eigenvalues --    0.53761   0.54207   0.55306   0.56530   0.57393
 Alpha virt. eigenvalues --    0.57485   0.58862   0.59513   0.60504   0.60920
 Alpha virt. eigenvalues --    0.62334   0.62726   0.63434   0.63659   0.64536
 Alpha virt. eigenvalues --    0.65389   0.67283   0.68730   0.69791   0.70900
 Alpha virt. eigenvalues --    0.72280   0.73116   0.74657   0.74986   0.76846
 Alpha virt. eigenvalues --    0.78426   0.79053   0.80079   0.80271   0.81768
 Alpha virt. eigenvalues --    0.83356   0.83971   0.84312   0.85698   0.86193
 Alpha virt. eigenvalues --    0.86547   0.87122   0.87485   0.88541   0.88933
 Alpha virt. eigenvalues --    0.89706   0.90271   0.91005   0.91329   0.91771
 Alpha virt. eigenvalues --    0.91860   0.92531   0.92879   0.93751   0.94204
 Alpha virt. eigenvalues --    0.94734   0.95456   0.95682   0.96465   0.97096
 Alpha virt. eigenvalues --    0.98075   0.98169   0.99602   1.00550   1.01546
 Alpha virt. eigenvalues --    1.02966   1.04689   1.05163   1.05639   1.06909
 Alpha virt. eigenvalues --    1.08052   1.09189   1.12258   1.12679   1.13735
 Alpha virt. eigenvalues --    1.14334   1.15758   1.18285   1.19470   1.23118
 Alpha virt. eigenvalues --    1.25020   1.29126   1.33029   1.38316   1.39672
 Alpha virt. eigenvalues --    1.41114   1.42411   1.44026   1.44657   1.46671
 Alpha virt. eigenvalues --    1.50486   1.54225   1.54534   1.57069   1.60157
 Alpha virt. eigenvalues --    1.61748   1.62941   1.64824   1.69619   1.71077
 Alpha virt. eigenvalues --    1.73622   1.74678   1.74790   1.76348   1.77104
 Alpha virt. eigenvalues --    1.79184   1.79619   1.79834   1.81032   1.81726
 Alpha virt. eigenvalues --    1.82085   1.83679   1.86509   1.87037   1.89646
 Alpha virt. eigenvalues --    1.89873   1.91231   1.91573   1.93548   1.93791
 Alpha virt. eigenvalues --    1.95930   1.96549   1.96968   1.99244   2.00034
 Alpha virt. eigenvalues --    2.00902   2.02278   2.04536   2.06702   2.08415
 Alpha virt. eigenvalues --    2.09773   2.10793   2.12024   2.12840   2.15509
 Alpha virt. eigenvalues --    2.17228   2.19767   2.20972   2.22160   2.22306
 Alpha virt. eigenvalues --    2.25032   2.25429   2.27880   2.28693   2.31427
 Alpha virt. eigenvalues --    2.32948   2.33241   2.34640   2.36196   2.37725
 Alpha virt. eigenvalues --    2.38306   2.40907   2.42308   2.42851   2.44540
 Alpha virt. eigenvalues --    2.45420   2.47491   2.49027   2.51344   2.53694
 Alpha virt. eigenvalues --    2.54843   2.57092   2.58220   2.60542   2.60790
 Alpha virt. eigenvalues --    2.64480   2.68051   2.69913   2.73353   2.75079
 Alpha virt. eigenvalues --    2.77835   2.79461   2.83537   2.85661   2.92902
 Alpha virt. eigenvalues --    2.96648   2.96903   3.00690   3.07134   3.86116
 Alpha virt. eigenvalues --    3.99815   4.08841   4.12651   4.20662   4.21550
 Alpha virt. eigenvalues --    4.26459   4.30662   4.32415   4.38239   4.42043
 Alpha virt. eigenvalues --    4.46946   4.52271   4.55312   4.60188   4.66308
 Alpha virt. eigenvalues --    4.74457
          Condensed to atoms (all electrons):
              1          2          3          4          5          6
     1  C    4.705044   0.682643  -0.033537  -0.005929  -0.002869  -0.026241
     2  C    0.682643   5.027487   0.323996  -0.029330  -0.003646  -0.009100
     3  C   -0.033537   0.323996   5.123021   0.361745  -0.046841   0.000802
     4  C   -0.005929  -0.029330   0.361745   5.061052   0.361946  -0.038438
     5  C   -0.002869  -0.003646  -0.046841   0.361946   5.070742   0.367041
     6  C   -0.026241  -0.009100   0.000802  -0.038438   0.367041   5.055519
     7  C    0.381119  -0.054089  -0.015881   0.001432  -0.042176   0.367428
     8  C    0.369666  -0.031744   0.006622  -0.000214   0.000019   0.004404
     9  C   -0.038118  -0.005600  -0.000158  -0.000002  -0.000002   0.000038
    10  C   -0.000081   0.003543  -0.000067   0.000001   0.000000  -0.000006
    11  C   -0.000201   0.000032   0.000000   0.000000   0.000000   0.000000
    12  O   -0.004111   0.000471  -0.000020   0.000000   0.000000   0.000001
    13  C   -0.041856  -0.002464   0.001129  -0.002725  -0.004335  -0.048337
    14  C    0.000187   0.002887  -0.029941   0.364371  -0.023370   0.003096
    15  C   -0.000013  -0.000033   0.005024  -0.062002  -0.009484   0.000297
    16  C    0.000011  -0.000054  -0.009790  -0.052278   0.004298  -0.000094
    17  O   -0.000008   0.000401   0.004806  -0.060507  -0.005239   0.000037
    18  H   -0.030574   0.354322  -0.056088   0.003222  -0.000127  -0.000188
    19  H    0.004239  -0.030949   0.364723  -0.038554   0.005046   0.000030
    20  H   -0.005889  -0.033860   0.358435  -0.032855  -0.006723  -0.000856
    21  H   -0.000633   0.002506  -0.056264   0.348119  -0.044150  -0.003843
    22  H   -0.000258  -0.000060   0.005229  -0.029970   0.370442  -0.038433
    23  H   -0.000059  -0.000003  -0.004356  -0.047306   0.353794  -0.033554
    24  H    0.004504   0.000327  -0.000139   0.004680  -0.034463   0.361335
    25  H   -0.003266   0.000815   0.004078  -0.005263  -0.035444   0.368999
    26  H   -0.049291   0.004451  -0.000055  -0.000152   0.005591  -0.045828
    27  H   -0.038022   0.001541  -0.000206   0.000022  -0.000005   0.000115
    28  H   -0.027404  -0.007206   0.000193   0.000007   0.000000  -0.000112
    29  H   -0.005106   0.000199   0.000006   0.000000   0.000002  -0.000226
    30  H    0.003607   0.000028   0.000003   0.000000   0.000000   0.000002
    31  H    0.000007   0.000004   0.000000   0.000000   0.000000   0.000000
    32  H    0.000076  -0.000001   0.000000   0.000000   0.000000   0.000000
    33  H    0.000000  -0.000001   0.000000   0.000000   0.000000   0.000000
    34  H   -0.003643  -0.000080  -0.000007   0.000042   0.000053   0.004874
    35  H    0.004230  -0.000024  -0.000033   0.000179  -0.001103  -0.003257
    36  H   -0.004269   0.001780  -0.000265  -0.000954   0.003444  -0.006086
    37  H    0.000000   0.000001  -0.000092   0.004907   0.000195  -0.000003
    38  H    0.000001  -0.000016  -0.000117   0.001925  -0.000680  -0.000021
    39  H    0.000000  -0.000002  -0.000049  -0.008258   0.003357   0.000000
    40  H    0.000000  -0.000001   0.000135   0.004579  -0.000107   0.000001
    41  H    0.000000  -0.000014   0.000258  -0.002704  -0.000012   0.000000
    42  H   -0.000006  -0.000047   0.000418  -0.005329  -0.000048  -0.000001
    43  H    0.000003  -0.000050  -0.000881  -0.006972   0.003894  -0.000295
              7          8          9         10         11         12
     1  C    0.381119   0.369666  -0.038118  -0.000081  -0.000201  -0.004111
     2  C   -0.054089  -0.031744  -0.005600   0.003543   0.000032   0.000471
     3  C   -0.015881   0.006622  -0.000158  -0.000067   0.000000  -0.000020
     4  C    0.001432  -0.000214  -0.000002   0.000001   0.000000   0.000000
     5  C   -0.042176   0.000019  -0.000002   0.000000   0.000000   0.000000
     6  C    0.367428   0.004404   0.000038  -0.000006   0.000000   0.000001
     7  C    4.991290  -0.065190  -0.002808  -0.000560  -0.000029  -0.000085
     8  C   -0.065190   5.118470   0.308558  -0.025028   0.005217   0.006943
     9  C   -0.002808   0.308558   5.404885   0.281738  -0.134442  -0.089151
    10  C   -0.000560  -0.025028   0.281738   4.485380   0.328279   0.585919
    11  C   -0.000029   0.005217  -0.134442   0.328279   5.356077  -0.080949
    12  O   -0.000085   0.006943  -0.089151   0.585919  -0.080949   8.014530
    13  C    0.353631  -0.002251  -0.000228   0.000011   0.000000  -0.000001
    14  C   -0.000069   0.000001   0.000000   0.000000   0.000000   0.000000
    15  C   -0.000007   0.000000   0.000000   0.000000   0.000000   0.000000
    16  C   -0.000001   0.000000   0.000000   0.000000   0.000000   0.000000
    17  O    0.000001   0.000000   0.000000   0.000000   0.000000   0.000000
    18  H    0.006744  -0.017044   0.000039  -0.000042   0.000044   0.004083
    19  H    0.000111  -0.000216  -0.000002   0.000002   0.000000  -0.000008
    20  H    0.001133  -0.000067   0.000021  -0.000006   0.000001   0.000036
    21  H    0.004278  -0.000094   0.000004   0.000000   0.000000   0.000000
    22  H   -0.005918  -0.000001   0.000000   0.000000   0.000000   0.000000
    23  H    0.005139   0.000002   0.000000   0.000000   0.000000   0.000000
    24  H   -0.030304  -0.000171  -0.000003   0.000000   0.000000   0.000000
    25  H   -0.036720   0.000109  -0.000016   0.000053  -0.000003  -0.000003
    26  H    0.369034  -0.009402   0.002145   0.000380  -0.000028   0.000023
    27  H   -0.003860   0.357095  -0.038435   0.004703  -0.000100   0.000236
    28  H    0.004240   0.365048  -0.035885  -0.005600   0.000251   0.004789
    29  H    0.001294  -0.037912   0.351548  -0.028641   0.003126   0.002420
    30  H    0.000069  -0.022111   0.344910  -0.024871   0.002338  -0.000258
    31  H    0.000000  -0.000145   0.006046  -0.018851   0.348550   0.005771
    32  H    0.000014  -0.000164   0.003028  -0.020988   0.351909   0.001394
    33  H    0.000000  -0.000021   0.004500  -0.023139   0.353157   0.001480
    34  H   -0.028317   0.001161   0.000111  -0.000001   0.000000   0.000000
    35  H   -0.028859   0.000010   0.000006   0.000000   0.000000   0.000000
    36  H   -0.031782  -0.000270   0.000019   0.000000   0.000000   0.000000
    37  H    0.000000   0.000000   0.000000   0.000000   0.000000   0.000000
    38  H    0.000003   0.000000   0.000000   0.000000   0.000000   0.000000
    39  H    0.000004   0.000000   0.000000   0.000000   0.000000   0.000000
    40  H    0.000000   0.000000   0.000000   0.000000   0.000000   0.000000
    41  H    0.000001   0.000000   0.000000   0.000000   0.000000   0.000000
    42  H    0.000000   0.000000   0.000000   0.000000   0.000000   0.000000
    43  H    0.000007   0.000000   0.000000   0.000000   0.000000   0.000000
             13         14         15         16         17         18
     1  C   -0.041856   0.000187  -0.000013   0.000011  -0.000008  -0.030574
     2  C   -0.002464   0.002887  -0.000033  -0.000054   0.000401   0.354322
     3  C    0.001129  -0.029941   0.005024  -0.009790   0.004806  -0.056088
     4  C   -0.002725   0.364371  -0.062002  -0.052278  -0.060507   0.003222
     5  C   -0.004335  -0.023370  -0.009484   0.004298  -0.005239  -0.000127
     6  C   -0.048337   0.003096   0.000297  -0.000094   0.000037  -0.000188
     7  C    0.353631  -0.000069  -0.000007  -0.000001   0.000001   0.006744
     8  C   -0.002251   0.000001   0.000000   0.000000   0.000000  -0.017044
     9  C   -0.000228   0.000000   0.000000   0.000000   0.000000   0.000039
    10  C    0.000011   0.000000   0.000000   0.000000   0.000000  -0.000042
    11  C    0.000000   0.000000   0.000000   0.000000   0.000000   0.000044
    12  O   -0.000001   0.000000   0.000000   0.000000   0.000000   0.004083
    13  C    5.146384   0.000002   0.000000   0.000000   0.000000  -0.000128
    14  C    0.000002   4.607948   0.376382   0.381977   0.233609  -0.000126
    15  C    0.000000   0.376382   5.230823  -0.069530  -0.060758   0.000002
    16  C    0.000000   0.381977  -0.069530   5.181500  -0.059721  -0.000010
    17  O    0.000000   0.233609  -0.060758  -0.059721   8.341185   0.000004
    18  H   -0.000128  -0.000126   0.000002  -0.000010   0.000004   0.593633
    19  H    0.000003  -0.005612   0.000156   0.002733  -0.000079  -0.006787
    20  H   -0.000094  -0.003286   0.000019   0.000001   0.004049   0.003623
    21  H   -0.002046  -0.033760  -0.000828  -0.003852   0.004097   0.000583
    22  H    0.004634  -0.004968   0.003178  -0.000052   0.000175   0.000006
    23  H   -0.000026  -0.004269  -0.002942   0.000244   0.003485   0.000004
    24  H   -0.003549  -0.000074   0.000000   0.000001  -0.000001   0.000005
    25  H    0.005826  -0.000106   0.000005  -0.000002   0.000015  -0.000034
    26  H   -0.050730   0.000002   0.000000   0.000000   0.000000  -0.000222
    27  H    0.001723   0.000000   0.000000   0.000000   0.000000   0.000281
    28  H   -0.000006   0.000000   0.000000   0.000000   0.000000   0.008143
    29  H    0.000041   0.000000   0.000000   0.000000   0.000000   0.000025
    30  H   -0.000012   0.000000   0.000000   0.000000   0.000000  -0.000039
    31  H    0.000000   0.000000   0.000000   0.000000   0.000000  -0.000001
    32  H    0.000000   0.000000   0.000000   0.000000   0.000000  -0.000002
    33  H    0.000000   0.000000   0.000000   0.000000   0.000000  -0.000001
    34  H    0.371521   0.000000   0.000000   0.000000   0.000000   0.000001
    35  H    0.364075   0.000000  -0.000002   0.000000   0.000000   0.000004
    36  H    0.372526   0.000026  -0.000004  -0.000004   0.000000  -0.000035
    37  H    0.000000  -0.021165   0.364843  -0.008044   0.001139   0.000000
    38  H   -0.000007  -0.027402   0.340905  -0.001352   0.004840   0.000000
    39  H   -0.000003  -0.022649   0.361138   0.005541  -0.002489   0.000000
    40  H    0.000000  -0.022089  -0.008388   0.363387   0.000812   0.000000
    41  H   -0.000001  -0.026394  -0.000922   0.360385   0.003346   0.000002
    42  H    0.000000  -0.022106   0.005800   0.361808   0.000536   0.000014
    43  H   -0.000001  -0.026973  -0.005145   0.008933   0.231833   0.000000
             19         20         21         22         23         24
     1  C    0.004239  -0.005889  -0.000633  -0.000258  -0.000059   0.004504
     2  C   -0.030949  -0.033860   0.002506  -0.000060  -0.000003   0.000327
     3  C    0.364723   0.358435  -0.056264   0.005229  -0.004356  -0.000139
     4  C   -0.038554  -0.032855   0.348119  -0.029970  -0.047306   0.004680
     5  C    0.005046  -0.006723  -0.044150   0.370442   0.353794  -0.034463
     6  C    0.000030  -0.000856  -0.003843  -0.038433  -0.033554   0.361335
     7  C    0.000111   0.001133   0.004278  -0.005918   0.005139  -0.030304
     8  C   -0.000216  -0.000067  -0.000094  -0.000001   0.000002  -0.000171
     9  C   -0.000002   0.000021   0.000004   0.000000   0.000000  -0.000003
    10  C    0.000002  -0.000006   0.000000   0.000000   0.000000   0.000000
    11  C    0.000000   0.000001   0.000000   0.000000   0.000000   0.000000
    12  O   -0.000008   0.000036   0.000000   0.000000   0.000000   0.000000
    13  C    0.000003  -0.000094  -0.002046   0.004634  -0.000026  -0.003549
    14  C   -0.005612  -0.003286  -0.033760  -0.004968  -0.004269  -0.000074
    15  C    0.000156   0.000019  -0.000828   0.003178  -0.002942   0.000000
    16  C    0.002733   0.000001  -0.003852  -0.000052   0.000244   0.000001
    17  O   -0.000079   0.004049   0.004097   0.000175   0.003485  -0.000001
    18  H   -0.006787   0.003623   0.000583   0.000006   0.000004   0.000005
    19  H    0.591725  -0.036713  -0.001125  -0.000160  -0.000102   0.000000
    20  H   -0.036713   0.591703   0.006394   0.000098   0.002903  -0.000094
    21  H   -0.001125   0.006394   0.642771  -0.008330   0.007309  -0.000097
    22  H   -0.000160   0.000098  -0.008330   0.601439  -0.040641  -0.006162
    23  H   -0.000102   0.002903   0.007309  -0.040641   0.640833  -0.000573
    24  H    0.000000  -0.000094  -0.000097  -0.006162  -0.000573   0.616038
    25  H   -0.000003   0.000656  -0.000172   0.005764  -0.006089  -0.039224
    26  H    0.000001   0.000070   0.000057  -0.000065  -0.000188  -0.006466
    27  H    0.000008  -0.000004  -0.000010   0.000000   0.000000   0.000004
    28  H   -0.000016  -0.000006  -0.000008   0.000000   0.000000   0.000002
    29  H    0.000000  -0.000001   0.000000   0.000000   0.000000   0.000012
    30  H    0.000000   0.000000   0.000000   0.000000   0.000000   0.000000
    31  H    0.000000   0.000000   0.000000   0.000000   0.000000   0.000000
    32  H    0.000000   0.000000   0.000000   0.000000   0.000000   0.000000
    33  H    0.000000   0.000000   0.000000   0.000000   0.000000   0.000000
    34  H    0.000000   0.000000  -0.000022  -0.000060   0.000000  -0.000073
    35  H    0.000000   0.000004   0.000071   0.000762  -0.000013   0.003566
    36  H    0.000003   0.000016   0.005964  -0.000305  -0.000018  -0.000199
    37  H   -0.000008   0.000002  -0.000154   0.000039  -0.000128   0.000000
    38  H   -0.000004  -0.000004   0.001223   0.000750   0.000133   0.000000
    39  H    0.000000  -0.000008   0.000102   0.000488   0.002198   0.000008
    40  H   -0.000184  -0.000011  -0.000113   0.000001  -0.000004   0.000000
    41  H    0.000035   0.000015   0.003651  -0.000027   0.000002   0.000000
    42  H    0.005589   0.000160   0.000315  -0.000002   0.000003   0.000000
    43  H    0.000076   0.000416   0.000097  -0.000284   0.010442   0.000013
             25         26         27         28         29         30
     1  C   -0.003266  -0.049291  -0.038022  -0.027404  -0.005106   0.003607
     2  C    0.000815   0.004451   0.001541  -0.007206   0.000199   0.000028
     3  C    0.004078  -0.000055  -0.000206   0.000193   0.000006   0.000003
     4  C   -0.005263  -0.000152   0.000022   0.000007   0.000000   0.000000
     5  C   -0.035444   0.005591  -0.000005   0.000000   0.000002   0.000000
     6  C    0.368999  -0.045828   0.000115  -0.000112  -0.000226   0.000002
     7  C   -0.036720   0.369034  -0.003860   0.004240   0.001294   0.000069
     8  C    0.000109  -0.009402   0.357095   0.365048  -0.037912  -0.022111
     9  C   -0.000016   0.002145  -0.038435  -0.035885   0.351548   0.344910
    10  C    0.000053   0.000380   0.004703  -0.005600  -0.028641  -0.024871
    11  C   -0.000003  -0.000028  -0.000100   0.000251   0.003126   0.002338
    12  O   -0.000003   0.000023   0.000236   0.004789   0.002420  -0.000258
    13  C    0.005826  -0.050730   0.001723  -0.000006   0.000041  -0.000012
    14  C   -0.000106   0.000002   0.000000   0.000000   0.000000   0.000000
    15  C    0.000005   0.000000   0.000000   0.000000   0.000000   0.000000
    16  C   -0.000002   0.000000   0.000000   0.000000   0.000000   0.000000
    17  O    0.000015   0.000000   0.000000   0.000000   0.000000   0.000000
    18  H   -0.000034  -0.000222   0.000281   0.008143   0.000025  -0.000039
    19  H   -0.000003   0.000001   0.000008  -0.000016   0.000000   0.000000
    20  H    0.000656   0.000070  -0.000004  -0.000006  -0.000001   0.000000
    21  H   -0.000172   0.000057  -0.000010  -0.000008   0.000000   0.000000
    22  H    0.005764  -0.000065   0.000000   0.000000   0.000000   0.000000
    23  H   -0.006089  -0.000188   0.000000   0.000000   0.000000   0.000000
    24  H   -0.039224  -0.006466   0.000004   0.000002   0.000012   0.000000
    25  H    0.602158  -0.002958   0.000006  -0.000004   0.000006   0.000000
    26  H   -0.002958   0.652122  -0.000219   0.000098   0.006138  -0.000179
    27  H    0.000006  -0.000219   0.614954  -0.038816  -0.002207  -0.003138
    28  H   -0.000004   0.000098  -0.038816   0.572245   0.005087  -0.002098
    29  H    0.000006   0.006138  -0.002207   0.005087   0.573686  -0.030206
    30  H    0.000000  -0.000179  -0.003138  -0.002098  -0.030206   0.560451
    31  H    0.000000  -0.000001   0.000002   0.000000  -0.000052  -0.000175
    32  H    0.000010  -0.000017  -0.000001  -0.000004   0.001465  -0.000005
    33  H    0.000000   0.000001  -0.000002  -0.000013  -0.000575   0.000683
    34  H   -0.000158  -0.005293   0.004267  -0.000093   0.000006  -0.000010
    35  H   -0.000027  -0.002743  -0.000176   0.000004  -0.000001  -0.000001
    36  H   -0.000076   0.006031   0.000107  -0.000017   0.000002   0.000000
    37  H    0.000000   0.000000   0.000000   0.000000   0.000000   0.000000
    38  H    0.000000   0.000000   0.000000   0.000000   0.000000   0.000000
    39  H   -0.000001   0.000000   0.000000   0.000000   0.000000   0.000000
    40  H    0.000000   0.000000   0.000000   0.000000   0.000000   0.000000
    41  H    0.000000   0.000000   0.000000   0.000000   0.000000   0.000000
    42  H    0.000000   0.000000   0.000000   0.000000   0.000000   0.000000
    43  H   -0.000048   0.000000   0.000000   0.000000   0.000000   0.000000
             31         32         33         34         35         36
     1  C    0.000007   0.000076   0.000000  -0.003643   0.004230  -0.004269
     2  C    0.000004  -0.000001  -0.000001  -0.000080  -0.000024   0.001780
     3  C    0.000000   0.000000   0.000000  -0.000007  -0.000033  -0.000265
     4  C    0.000000   0.000000   0.000000   0.000042   0.000179  -0.000954
     5  C    0.000000   0.000000   0.000000   0.000053  -0.001103   0.003444
     6  C    0.000000   0.000000   0.000000   0.004874  -0.003257  -0.006086
     7  C    0.000000   0.000014   0.000000  -0.028317  -0.028859  -0.031782
     8  C   -0.000145  -0.000164  -0.000021   0.001161   0.000010  -0.000270
     9  C    0.006046   0.003028   0.004500   0.000111   0.000006   0.000019
    10  C   -0.018851  -0.020988  -0.023139  -0.000001   0.000000   0.000000
    11  C    0.348550   0.351909   0.353157   0.000000   0.000000   0.000000
    12  O    0.005771   0.001394   0.001480   0.000000   0.000000   0.000000
    13  C    0.000000   0.000000   0.000000   0.371521   0.364075   0.372526
    14  C    0.000000   0.000000   0.000000   0.000000   0.000000   0.000026
    15  C    0.000000   0.000000   0.000000   0.000000  -0.000002  -0.000004
    16  C    0.000000   0.000000   0.000000   0.000000   0.000000  -0.000004
    17  O    0.000000   0.000000   0.000000   0.000000   0.000000   0.000000
    18  H   -0.000001  -0.000002  -0.000001   0.000001   0.000004  -0.000035
    19  H    0.000000   0.000000   0.000000   0.000000   0.000000   0.000003
[...]
     7  C    0.000091   0.001234   0.003818  -0.005942   0.005112  -0.031138
     8  C   -0.000183  -0.000051  -0.000076  -0.000001   0.000002  -0.000215
     9  C   -0.000001   0.000023   0.000003   0.000000   0.000000  -0.000005
    10  C    0.000002   0.000001   0.000000   0.000000   0.000000   0.000000
    11  C    0.000000   0.000001   0.000000   0.000000   0.000000   0.000000
    12  O   -0.000006   0.000006   0.000000   0.000000   0.000000   0.000000
    13  C   -0.000001  -0.000103  -0.002132   0.004452   0.000013  -0.002819
    14  C   -0.005283  -0.004486  -0.033320  -0.004883  -0.004182  -0.000087
    15  C    0.000191   0.000044  -0.001177   0.003154  -0.003650   0.000000
    16  C    0.001981   0.000133  -0.003645  -0.000078   0.000351   0.000002
    17  O   -0.000107   0.005827   0.003600   0.000166   0.004347  -0.000001
    18  H   -0.006761   0.003457   0.000537   0.000006   0.000004   0.000006
    19  H    0.588831  -0.036299  -0.001258  -0.000170  -0.000113  -0.000001
    20  H   -0.036299   0.596783   0.006432   0.000137   0.003430  -0.000112
    21  H   -0.001258   0.006432   0.635982  -0.007896   0.006962  -0.000108
    22  H   -0.000170   0.000137  -0.007896   0.601649  -0.039687  -0.005767
    23  H   -0.000113   0.003430   0.006962  -0.039687   0.644156  -0.000912
    24  H   -0.000001  -0.000112  -0.000108  -0.005767  -0.000912   0.621077
    25  H    0.000000   0.000883  -0.000171   0.005523  -0.006129  -0.036646
    26  H    0.000002   0.000062   0.000039  -0.000066  -0.000175  -0.006804
    27  H    0.000005  -0.000003  -0.000004   0.000000   0.000000   0.000003
    28  H   -0.000006  -0.000008  -0.000007   0.000000   0.000000   0.000002
    29  H    0.000000  -0.000003   0.000000   0.000000   0.000000   0.000021
    30  H    0.000000   0.000000   0.000000   0.000000   0.000000   0.000000
    31  H    0.000000   0.000000   0.000000   0.000000   0.000000   0.000000
    32  H    0.000000  -0.000003   0.000000   0.000000   0.000000   0.000000
    33  H    0.000000   0.000000   0.000000   0.000000   0.000000   0.000000
    34  H    0.000000   0.000000  -0.000015  -0.000060  -0.000001  -0.000110
    35  H    0.000000   0.000004   0.000077   0.000646  -0.000010   0.003292
    36  H    0.000006   0.000017   0.006236  -0.000165  -0.000020  -0.000210
    37  H   -0.000010   0.000002  -0.000154   0.000043  -0.000155   0.000000
    38  H   -0.000005  -0.000006   0.001499   0.000753   0.000155   0.000000
    39  H    0.000001  -0.000010   0.000120   0.000128   0.002708   0.000010
    40  H   -0.000239  -0.000017  -0.000094   0.000001  -0.000007   0.000000
    41  H   -0.000009   0.000007   0.003479  -0.000029  -0.000001   0.000000
    42  H    0.007057   0.000187   0.000339  -0.000001   0.000004   0.000000
    43  H    0.000066   0.000370   0.000005  -0.000180   0.008764   0.000009
             25         26         27         28         29         30
     1  C   -0.003427  -0.048932  -0.036454  -0.026744  -0.004664   0.003937
     2  C    0.000392   0.004589   0.003215  -0.006717   0.000328   0.000091
     3  C    0.004567  -0.000035  -0.000164   0.000103  -0.000001   0.000003
     4  C   -0.005765  -0.000184   0.000015   0.000008   0.000000   0.000000
     5  C   -0.035446   0.005263  -0.000005   0.000001   0.000003   0.000000
     6  C    0.369315  -0.044628   0.000237  -0.000134  -0.000305   0.000005
     7  C   -0.039114   0.369544  -0.004807   0.004364   0.001634   0.000024
     8  C    0.000126  -0.008088   0.356467   0.361386  -0.039863  -0.021411
     9  C    0.000031   0.001856  -0.038613  -0.042228   0.352671   0.339378
    10  C    0.000004   0.000243   0.004521  -0.006689  -0.028344  -0.022647
    11  C   -0.000004   0.000000  -0.000123   0.000711   0.003639   0.001608
    12  O   -0.000001   0.000005   0.000322   0.011428   0.002610  -0.000810
    13  C    0.005734  -0.049149   0.001255  -0.000011  -0.000004   0.000000
    14  C   -0.000095   0.000002   0.000000   0.000000   0.000000   0.000000
    15  C    0.000007   0.000000   0.000000   0.000000   0.000000   0.000000
    16  C   -0.000003   0.000000   0.000000   0.000000   0.000000   0.000000
    17  O    0.000015   0.000000   0.000000   0.000000   0.000000   0.000000
    18  H   -0.000055  -0.000224   0.000194   0.007305   0.000047  -0.000023
    19  H    0.000000   0.000002   0.000005  -0.000006   0.000000   0.000000
    20  H    0.000883   0.000062  -0.000003  -0.000008  -0.000003   0.000000
    21  H   -0.000171   0.000039  -0.000004  -0.000007   0.000000   0.000000
    22  H    0.005523  -0.000066   0.000000   0.000000   0.000000   0.000000
    23  H   -0.006129  -0.000175   0.000000   0.000000   0.000000   0.000000
    24  H   -0.036646  -0.006804   0.000003   0.000002   0.000021   0.000000
    25  H    0.604848  -0.002349   0.000010  -0.000004   0.000099   0.000001
    26  H   -0.002349   0.650237   0.000024   0.000207   0.005613  -0.000335
    27  H    0.000010   0.000024   0.611453  -0.034713  -0.000314  -0.004812
    28  H   -0.000004   0.000207  -0.034713   0.562458   0.005124  -0.000447
    29  H    0.000099   0.005613  -0.000314   0.005124   0.575885  -0.031393
    30  H    0.000001  -0.000335  -0.004812  -0.000447  -0.031393   0.566710
    31  H    0.000000   0.000000   0.000002  -0.000006   0.000035  -0.000284
    32  H    0.000024  -0.000020   0.000000  -0.000008   0.000979   0.000149
    33  H    0.000000   0.000000  -0.000003  -0.000026  -0.000865   0.000737
    34  H   -0.000158  -0.004088   0.005233  -0.000169  -0.000015  -0.000004
    35  H   -0.000067  -0.003664  -0.000251   0.000006   0.000003  -0.000001
    36  H   -0.000031   0.005805   0.000043  -0.000006   0.000003   0.000000
    37  H    0.000000   0.000000   0.000000   0.000000   0.000000   0.000000
    38  H    0.000000   0.000000   0.000000   0.000000   0.000000   0.000000
    39  H   -0.000002   0.000000   0.000000   0.000000   0.000000   0.000000
    40  H    0.000000   0.000000   0.000000   0.000000   0.000000   0.000000
    41  H    0.000000   0.000000   0.000000   0.000000   0.000000   0.000000
    42  H    0.000000   0.000000   0.000000   0.000000   0.000000   0.000000
    43  H   -0.000041   0.000000   0.000000   0.000000   0.000000   0.000000
             31         32         33         34         35         36
     1  C    0.000000   0.000193  -0.000006  -0.003757   0.004417  -0.004684
     2  C    0.000007   0.000040   0.000000  -0.000019  -0.000042   0.001775
     3  C    0.000000   0.000000   0.000000  -0.000003  -0.000034  -0.000318
     4  C    0.000000   0.000000   0.000000   0.000035   0.000180  -0.001036
     5  C    0.000000   0.000000   0.000000   0.000073  -0.001028   0.004041
     6  C    0.000000   0.000000   0.000000   0.004940  -0.002659  -0.007313
     7  C    0.000000   0.000005   0.000001  -0.029824  -0.029434  -0.031341
     8  C   -0.000145  -0.000299   0.000085   0.001361   0.000041  -0.000144
     9  C    0.006158   0.002462   0.005182   0.000048   0.000003   0.000005
    10  C   -0.019076  -0.019695  -0.023589  -0.000002   0.000000   0.000000
    11  C    0.347520   0.351820   0.351522   0.000000   0.000000   0.000000
    12  O    0.005358   0.000520   0.001982   0.000000   0.000000   0.000000
    13  C    0.000000   0.000000   0.000000   0.369987   0.362474   0.371934
    14  C    0.000000   0.000000   0.000000   0.000000  -0.000001   0.000033
    15  C    0.000000   0.000000   0.000000   0.000000  -0.000002  -0.000003
    16  C    0.000000   0.000000   0.000000   0.000000   0.000000  -0.000006
    17  O    0.000000   0.000000   0.000000   0.000000   0.000000   0.000000
    18  H   -0.000002  -0.000018  -0.000001  -0.000002   0.000004  -0.000036
    19  H    0.000000   0.000000   0.000000   0.000000   0.000000   0.000006
    20  H    0.000000  -0.000003   0.000000   0.000000   0.000004   0.000017
    21  H    0.000000   0.000000   0.000000  -0.000015   0.000077   0.006236
    22  H    0.000000   0.000000   0.000000  -0.000060   0.000646  -0.000165
    23  H    0.000000   0.000000   0.000000  -0.000001  -0.000010  -0.000020
    24  H    0.000000   0.000000   0.000000  -0.000110   0.003292  -0.000210
    25  H    0.000000   0.000024   0.000000  -0.000158  -0.000067  -0.000031
    26  H    0.000000  -0.000020   0.000000  -0.004088  -0.003664   0.005805
    27  H    0.000002   0.000000  -0.000003   0.005233  -0.000251   0.000043
    28  H   -0.000006  -0.000008  -0.000026  -0.000169   0.000006  -0.000006
    29  H    0.000035   0.000979  -0.000865  -0.000015   0.000003   0.000003
    30  H   -0.000284   0.000149   0.000737  -0.000004  -0.000001   0.000000
    31  H    0.526674  -0.020370  -0.023446   0.000000   0.000000   0.000000
    32  H   -0.020370   0.529581  -0.026440   0.000000   0.000000   0.000000
    33  H   -0.023446  -0.026440   0.545137   0.000000   0.000000   0.000000
    34  H    0.000000   0.000000   0.000000   0.568816  -0.030456  -0.030227
    35  H    0.000000   0.000000   0.000000  -0.030456   0.586148  -0.030832
    36  H    0.000000   0.000000   0.000000  -0.030227  -0.030832   0.561006
    37  H    0.000000   0.000000   0.000000   0.000000   0.000000   0.000000
    38  H    0.000000   0.000000   0.000000   0.000000   0.000000   0.000081
    39  H    0.000000   0.000000   0.000000   0.000000   0.000000  -0.000005
    40  H    0.000000   0.000000   0.000000   0.000000   0.000000   0.000000
    41  H    0.000000   0.000000   0.000000   0.000000   0.000000  -0.000011
    42  H    0.000000   0.000000   0.000000   0.000000   0.000000   0.000000
    43  H    0.000000   0.000000   0.000000   0.000000   0.000000   0.000000
             37         38         39         40         41         42
     1  C    0.000000   0.000001   0.000000   0.000000   0.000001  -0.000008
     2  C    0.000001  -0.000016  -0.000002   0.000000  -0.000027  -0.000105
     3  C   -0.000113  -0.000079  -0.000040   0.000162   0.000268  -0.000069
     4  C    0.005460   0.001623  -0.008606   0.005170  -0.002349  -0.006285
     5  C    0.000227  -0.001005   0.003645  -0.000128   0.000000  -0.000026
     6  C   -0.000004  -0.000024  -0.000002   0.000002   0.000000  -0.000002
     7  C    0.000000   0.000004   0.000005   0.000000   0.000001   0.000000
     8  C    0.000000   0.000000   0.000000   0.000000   0.000000   0.000000
     9  C    0.000000   0.000000   0.000000   0.000000   0.000000   0.000000
    10  C    0.000000   0.000000   0.000000   0.000000   0.000000   0.000000
    11  C    0.000000   0.000000   0.000000   0.000000   0.000000   0.000000
    12  O    0.000000   0.000000   0.000000   0.000000   0.000000   0.000000
    13  C    0.000000  -0.000009  -0.000003   0.000000  -0.000001   0.000000
    14  C   -0.024822  -0.025520  -0.024146  -0.023485  -0.027882  -0.024137
    15  C    0.362034   0.348415   0.359930  -0.008214  -0.001944   0.005873
    16  C   -0.008274  -0.002134   0.005655   0.359762   0.360927   0.363085
    17  O    0.001441   0.003723  -0.002381   0.001190   0.003429   0.000023
    18  H    0.000000   0.000000   0.000000   0.000000   0.000001   0.000018
    19  H   -0.000010  -0.000005   0.000001  -0.000239  -0.000009   0.007057
    20  H    0.000002  -0.000006  -0.000010  -0.000017   0.000007   0.000187
    21  H   -0.000154   0.001499   0.000120  -0.000094   0.003479   0.000339
    22  H    0.000043   0.000753   0.000128   0.000001  -0.000029  -0.000001
    23  H   -0.000155   0.000155   0.002708  -0.000007  -0.000001   0.000004
    24  H    0.000000   0.000000   0.000010   0.000000   0.000000   0.000000
    25  H    0.000000   0.000000  -0.000002   0.000000   0.000000   0.000000
    26  H    0.000000   0.000000   0.000000   0.000000   0.000000   0.000000
    27  H    0.000000   0.000000   0.000000   0.000000   0.000000   0.000000
    28  H    0.000000   0.000000   0.000000   0.000000   0.000000   0.000000
    29  H    0.000000   0.000000   0.000000   0.000000   0.000000   0.000000
    30  H    0.000000   0.000000   0.000000   0.000000   0.000000   0.000000
    31  H    0.000000   0.000000   0.000000   0.000000   0.000000   0.000000
    32  H    0.000000   0.000000   0.000000   0.000000   0.000000   0.000000
    33  H    0.000000   0.000000   0.000000   0.000000   0.000000   0.000000
    34  H    0.000000   0.000000   0.000000   0.000000   0.000000   0.000000
    35  H    0.000000   0.000000   0.000000   0.000000   0.000000   0.000000
    36  H    0.000000   0.000081  -0.000005   0.000000  -0.000011   0.000000
    37  H    0.565470  -0.027528  -0.030994   0.005709   0.000148  -0.000015
    38  H   -0.027528   0.582917  -0.028415   0.000324   0.001448  -0.000113
    39  H   -0.030994  -0.028415   0.577230  -0.000014  -0.000025  -0.000200
    40  H    0.005709   0.000324  -0.000014   0.566254  -0.028093  -0.028226
    41  H    0.000148   0.001448  -0.000025  -0.028093   0.575975  -0.027987
    42  H   -0.000015  -0.000113  -0.000200  -0.028226  -0.027987   0.550787
    43  H   -0.000475  -0.000067   0.004997  -0.000175  -0.000308  -0.000139
             43
     1  C    0.000004
     2  C   -0.000052
     3  C   -0.000761
     4  C   -0.004408
     5  C    0.002636
     6  C   -0.000241
     7  C    0.000004
     8  C    0.000000
     9  C    0.000000
    10  C    0.000000
    11  C    0.000000
    12  O    0.000000
    13  C    0.000000
    14  C   -0.025034
    15  C   -0.005478
    16  C    0.008459
    17  O    0.226931
    18  H    0.000000
    19  H    0.000066
    20  H    0.000370
    21  H    0.000005
    22  H   -0.000180
    23  H    0.008764
    24  H    0.000009
    25  H   -0.000041
    26  H    0.000000
    27  H    0.000000
    28  H    0.000000
    29  H    0.000000
    30  H    0.000000
    31  H    0.000000
    32  H    0.000000
    33  H    0.000000
    34  H    0.000000
    35  H    0.000000
    36  H    0.000000
    37  H   -0.000475
    38  H   -0.000067
    39  H    0.004997
    40  H   -0.000175
    41  H   -0.000308
    42  H   -0.000139
    43  H    0.393876
 Mulliken atomic charges:
              1
     1  C    0.167658
     2  C   -0.211615
     3  C   -0.303882
     4  C   -0.075754
     5  C   -0.286252
     6  C   -0.277140
     7  C   -0.136995
     8  C   -0.337557
     9  C   -0.359817
    10  C    0.469302
    11  C   -0.536094
    12  O   -0.454111
    13  C   -0.460374
    14  C    0.297032
    15  C   -0.471018
    16  C   -0.457952
    17  O   -0.652510
    18  H    0.139107
    19  H    0.146387
    20  H    0.147073
    21  H    0.128128
    22  H    0.141482
    23  H    0.111692
    24  H    0.127277
    25  H    0.137929
    26  H    0.125253
    27  H    0.137268
    28  H    0.164820
    29  H    0.157079
    30  H    0.169524
    31  H    0.177573
    32  H    0.181080
    33  H    0.169730
    34  H    0.148414
    35  H    0.141185
    36  H    0.155402
    37  H    0.152008
    38  H    0.143978
    39  H    0.140415
    40  H    0.150119
    41  H    0.142982
    42  H    0.159938
    43  H    0.391238
 Sum of Mulliken atomic charges =   0.00000
 Mulliken charges with hydrogens summed into heavy atoms:
              1
     1  C    0.167658
     2  C   -0.072508
     3  C   -0.010422
     4  C    0.052374
     5  C   -0.033078
     6  C   -0.011934
     7  C   -0.011742
     8  C   -0.035470
     9  C   -0.033214
    10  C    0.469302
    11  C   -0.007711
    12  O   -0.454111
    13  C   -0.015373
    14  C    0.297032
    15  C   -0.034616
    16  C   -0.004914
    17  O   -0.261272
 Sum of Mulliken charges with hydrogens summed into heavy atoms =   0.00000
 Electronic spatial extent (au):  <R**2>=           5715.0542
 Charge=              0.0000 electrons
 Dipole moment (field-independent basis, Debye):
    X=             -0.9143    Y=              3.8260    Z=              1.7672  Tot=              4.3125
 Quadrupole moment (field-independent basis, Debye-Ang):
   XX=            -99.9535   YY=           -113.5804   ZZ=           -102.7894
   XY=             -2.4979   XZ=             -5.8746   YZ=             -0.9296
 Traceless Quadrupole moment (field-independent basis, Debye-Ang):
   XX=              5.4876   YY=             -8.1393   ZZ=              2.6517
   XY=             -2.4979   XZ=             -5.8746   YZ=             -0.9296
 Octapole moment (field-independent basis, Debye-Ang**2):
  XXX=            -57.3034  YYY=              4.5409  ZZZ=             14.3219  XYY=              0.4691
  XXY=             41.5204  XXZ=             23.5489  XZZ=              5.9815  YZZ=             -5.1009
  YYZ=              0.8453  XYZ=             18.1118
 Hexadecapole moment (field-independent basis, Debye-Ang**3):
 XXXX=          -5339.8992 YYYY=          -1344.6334 ZZZZ=           -646.8446 XXXY=            -15.8005
 XXXZ=            -81.7101 YYYX=             -3.0304 YYYZ=              4.7359 ZZZX=             48.8886
 ZZZY=            -15.0936 XXYY=          -1260.6399 XXZZ=          -1000.7474 YYZZ=           -331.7568
 XXYZ=            -26.7845 YYXZ=            -29.9527 ZZXY=             -1.5425
 N-N= 1.291323922729D+03 E-N=-4.295370909808D+03  KE= 7.305779772157D+02
 1\1\GINC-98-AMD64A\FOpt\RB3LYP\6-31G(d)\C15H26O2\ZYANG\16-May-2014\0\\
 # opt b3lyp/6-31g(d) scrf=(smd,solvent=n-Hexane)\\5814rr__1.xyz opt\\0
 ,1\C,0.0635330953,-1.4119841879,2.3437312826\C,0.0426263338,-0.4847531
 921,1.3713170534\C,0.7559310382,-0.4632393086,0.0340038831\C,2.1931016
 939,-1.0324032728,0.0449409818\C,2.1815670849,-2.579556241,0.047312707
 4\C,1.0482484379,-3.2502859009,0.8438657807\C,0.8054081118,-2.74475651
 14,2.281661424\C,-0.7483976069,-1.1858985636,3.6123354464\C,-2.1147967
 63,-1.8973924701,3.6064768961\C,-3.1944261185,-1.1741398251,2.80453862
 06\C,-4.3686645267,-2.0176506501,2.347012272\O,-3.1348314501,0.0183997
 912,2.563779773\C,2.0886131209,-2.7528242054,3.1398072029\C,3.07541515
 44,-0.4506656619,-1.1124587021\C,4.4487633387,-1.141914604,-1.18706710
 47\C,3.2989679099,1.0581744774,-0.9523955081\O,2.4068189695,-0.5920184
 431,-2.3809643263\H,-0.5779361695,0.3910530971,1.5588747269\H,0.775040
 5059,0.5772460882,-0.3008949353\H,0.1632727339,-0.9869313452,-0.730547
 9082\H,2.6653241728,-0.69776606,0.9783170435\H,3.1462287323,-2.9472506
 22,0.4156686151\H,2.0974769841,-2.9478048803,-0.9871176962\H,1.2677552
 273,-4.326216334,0.8870808103\H,0.1058252184,-3.1581599443,0.290140046
 2\H,0.1343000925,-3.4847598132,2.7468247633\H,-0.1815711121,-1.5412759
 97,4.4824680112\H,-0.9253725211,-0.1167870526,3.7619792392\H,-2.032084
 777,-2.9332774789,3.2529813252\H,-2.5065191229,-1.9709518645,4.6339201
 952\H,-5.1739064218,-1.3783711223,1.9776770987\H,-4.042569451,-2.68424
 58586,1.5371372795\H,-4.7399224208,-2.6585713695,3.156079539\H,1.87470
 04549,-2.4882491354,4.1815836279\H,2.5463067181,-3.7504902441,3.142220
 7454\H,2.8321671987,-2.0404778515,2.7685347833\H,5.0594737116,-0.66560
 37363,-1.9615024929\H,4.9901567294,-1.07422557,-0.2356405594\H,4.35930
 39686,-2.2033383215,-1.4436255661\H,3.9387777663,1.4241617175,-1.76233
 61268\H,3.7902899525,1.2805120613,0.0013403362\H,2.3626203674,1.620788
 1749,-0.99674346\H,2.3460836376,-1.5415977684,-2.5740171241\\Version=E
 M64L-G09RevA.02\State=1-A\HF=-737.6979804\RMSD=7.058e-09\RMSF=1.014e-0
 5\Dipole=0.1607038,-1.5859511,0.5810275\Quadrupole=2.9343705,-1.731143
 1,-1.2032274,6.4988746,-1.5475074,0.6483179\PG=C01 [X(C15H26O2)]\\@


 WISDOM IS KNOWING WHAT TO DO,
 SKILL IS KNOWING HOW TO DO IT,
 AND VIRTUE IS NOT DOING IT.
 Job cpu time:  0 days  4 hours 48 minutes 50.5 seconds.
 File lengths (MBytes):  RWF=    333 Int=      0 D2E=      0 Chk=     12 Scr=      1
 Normal termination of Gaussian 09 at Fri May 16 11:50:38 2014.
























